----- GAMESS execution script 'rungms' -----
This job is running on host Macs-iMac.local
under operating system Darwin at Tue May 15 22:13:51 CDT 2012
Available scratch disk space (Kbyte units) at beginning of the job is
Filesystem   1024-blocks      Used Available Capacity  Mounted on
/dev/disk0s2   730499096 113001700 617241396    16%    /
Copying input file fast.inp to your run's scratch directory...

 Distributed Data Interface kickoff program.
 Initiating 4 compute processes on 4 nodes to run the following command:
 /Users/mac/Desktop/gamess/gamess.Aug112011R1.x fast 

          ******************************************************
          *         GAMESS VERSION = 11 AUG 2011 (R1)          *
          *             FROM IOWA STATE UNIVERSITY             *
          * M.W.SCHMIDT, K.K.BALDRIDGE, J.A.BOATZ, S.T.ELBERT, *
          *   M.S.GORDON, J.H.JENSEN, S.KOSEKI, N.MATSUNAGA,   *
          *          K.A.NGUYEN, S.J.SU, T.L.WINDUS,           *
          *       TOGETHER WITH M.DUPUIS, J.A.MONTGOMERY       *
          *         J.COMPUT.CHEM.  14, 1347-1363(1993)        *
          **************** 64 BIT LINUX VERSION ****************

  SINCE 1993, STUDENTS AND POSTDOCS WORKING AT IOWA STATE UNIVERSITY
  AND ALSO IN THEIR VARIOUS JOBS AFTER LEAVING ISU HAVE MADE IMPORTANT
  CONTRIBUTIONS TO THE CODE:
     IVANA ADAMOVIC, CHRISTINE AIKENS, YURI ALEXEEV, POOJA ARORA,
     ANDREY ASADCHEV, ROB BELL, PRADIPTA BANDYOPADHYAY, JONATHAN BENTZ,
     BRETT BODE, GALINA CHABAN, WEI CHEN, CHEOL HO CHOI, PAUL DAY,
     ALBERT DEFUSCO, TIM DUDLEY, DMITRI FEDOROV, GRAHAM FLETCHER,
     MARK FREITAG, KURT GLAESEMANN, DAN KEMP, GRANT MERRILL,
     NORIYUKI MINEZAWA, JONATHAN MULLIN, TAKESHI NAGATA,
     SEAN NEDD, HEATHER NETZLOFF, BOSILJKA NJEGIC, RYAN OLSON, MIKE PAK,
     JIM SHOEMAKER, LYUDMILA SLIPCHENKO, SAROM SOK, JIE SONG,
     TETSUYA TAKETSUGU, SIMON WEBB, SOOHAENG YOO, FEDERICO ZAHARIEV

  ADDITIONAL CODE HAS BEEN PROVIDED BY COLLABORATORS IN OTHER GROUPS:
     IOWA STATE UNIVERSITY:
          JOE IVANIC, LAIMUTIS BYTAUTAS, KLAUS RUEDENBERG
     UNIVERSITY OF TOKYO: KIMIHIKO HIRAO, TAKAHITO NAKAJIMA,
          TAKAO TSUNEDA, MUNEAKI KAMIYA, SUSUMU YANAGISAWA,
          KIYOSHI YAGI, MAHITO CHIBA, SEIKEN TOKURA, NAOAKI KAWAKAMI
     UNIVERSITY OF AARHUS: FRANK JENSEN
     UNIVERSITY OF IOWA: VISVALDAS KAIRYS, HUI LI
     NATIONAL INST. OF STANDARDS AND TECHNOLOGY: WALT STEVENS, DAVID GARMER
     UNIVERSITY OF PISA: BENEDETTA MENNUCCI, JACOPO TOMASI
     UNIVERSITY OF MEMPHIS: HENRY KURTZ, PRAKASHAN KORAMBATH
     UNIVERSITY OF ALBERTA: TOBY ZENG, MARIUSZ KLOBUKOWSKI
     UNIVERSITY OF NEW ENGLAND: MARK SPACKMAN
     MIE UNIVERSITY: HIROAKI UMEDA
     MICHIGAN STATE UNIVERSITY:
          KAROL KOWALSKI, MARTA WLOCH, JEFFREY GOUR, JESSE LUTZ, PIOTR PIECUCH
     UNIVERSITY OF SILESIA: MONIKA MUSIAL, STANISLAW KUCHARSKI
     FACULTES UNIVERSITAIRES NOTRE-DAME DE LA PAIX:
          OLIVIER QUINET, BENOIT CHAMPAGNE
     UNIVERSITY OF CALIFORNIA - SANTA BARBARA: BERNARD KIRTMAN
     INSTITUTE FOR MOLECULAR SCIENCE:
          KAZUYA ISHIMURA, MICHIO KATOUDA, AND SHIGERU NAGASE
     UNIVERSITY OF NOTRE DAME: DAN CHIPMAN
     KYUSHU UNIVERSITY:
          HARUYUKI NAKANO,
          FENG LONG GU, JACEK KORCHOWIEC, MARCIN MAKOWSKI, AND YURIKO AOKI,
          HIROTOSHI MORI AND EISAKU MIYOSHI
     PENNSYLVANIA STATE UNIVERSITY:
          TZVETELIN IORDANOV, CHET SWALINA, JONATHAN SKONE,
          SHARON HAMMES-SCHIFFER
     WASEDA UNIVERSITY:
          MASATO KOBAYASHI, TOMOKO AKAMA, TSUGUKI TOUMA,
          TAKESHI YOSHIKAWA, YASUHIRO IKABATA, HIROMI NAKAI
     UNIVERSITY OF NEBRASKA:
          PEIFENG SU, DEJUN SI, NANDUN THELLAMUREGE, YALI WANG, HUI LI
     UNIVERSITY OF ZURICH:
          ROBERTO PEVERATI, KIM BALDRIDGE
     N. COPERNICUS UNIVERSITY AND JACKSON STATE UNIVERSITY:
          MARIA BARYSZ


 PARALLEL VERSION RUNNING ON     4 PROCESSORS IN     4 NODES.

 EXECUTION OF GAMESS BEGUN Tue May 15 22:13:51 2012

            ECHO OF THE FIRST FEW INPUT CARDS -
 INPUT CARD>!   File created by MacMolPlt 7.4.3                                             
 INPUT CARD> $CONTRL SCFTYP=UHF RUNTYP=OPTIMIZE MAXIT=200 MULT=2 ISPHER=1 COORD=ZMT NZVAR=6 
 INPUT CARD>    NOSYM=1 $END                                                                
 INPUT CARD> $SYSTEM TIMLIM=525600 MEMORY=524288000 $END                                    
 INPUT CARD> $BASIS GBASIS=N31 NGAUSS=6 NDFUNC=1 $END                                       
 INPUT CARD> $SCF DIRSCF=.TRUE. $END                                                        
 INPUT CARD> $STATPT OPTTOL=0.0001 NSTEP=20 $END                                            
 INPUT CARD> $DATA                                                                          
 INPUT CARD>CS HCO2 data                                                                    
 INPUT CARD>C1                                                                              
 INPUT CARD>C                                                                               
 INPUT CARD>O  1    1.21399                                                                 
 INPUT CARD>O   1    1.34300  2 121.6405                                                    
 INPUT CARD>H   1    1.09901  2 116.2198  3 180.0000                                        
 INPUT CARD> $END                                                                           
 INPUT CARD> $ZMAT IZMAT(1)=1,2,1, 1,3,1, 2,3,1,2, 1,4,1, 2,4,1,2, 3,4,1,2,3 $END           
  524288000 WORDS OF MEMORY AVAILABLE

     BASIS OPTIONS
     -------------
     GBASIS=N31          IGAUSS=       6      POLAR=POPN31  
     NDFUNC=       1     NFFUNC=       0     DIFFSP=       F
     NPFUNC=       0      DIFFS=       F     BASNAM=        


     RUN TITLE
     ---------
 CS HCO2 data                                                                    

 THE POINT GROUP OF THE MOLECULE IS C1      
 THE ORDER OF THE PRINCIPAL AXIS IS     0

 YOUR FULLY SUBSTITUTED Z-MATRIX IS
 C   
 O      1   1.2139900
 O      1   1.3430000  2  121.6405
 H      1   1.0990100  2  116.2198  3  180.0000  0

 THE MOMENTS OF INERTIA ARE (AMU-ANGSTROM**2)
 IXX=     5.719   IYY=    39.970   IZZ=    45.689

 ATOM      ATOMIC                      COORDINATES (BOHR)
           CHARGE         X                   Y                   Z
 C           6.0     0.1096768957       -0.7867377644        0.0000000000
 O           8.0     2.0589091106        0.4229842538        0.0000000000
 O           8.0    -2.1608835356        0.3470619962        0.0000000000
 H           1.0     0.3125036599       -2.8536375779        0.0000000000

          INTERNUCLEAR DISTANCES (ANGS.)
          ------------------------------

                1 C          2 O          3 O          4 H     

   1 C       0.0000000    1.2139900 *  1.3430000 *  1.0990100 *
   2 O       1.2139900 *  0.0000000    2.2333797 *  1.9648218 *
   3 O       1.3430000 *  2.2333797 *  0.0000000    2.1405283 *
   4 H       1.0990100 *  1.9648218 *  2.1405283 *  0.0000000  

  * ... LESS THAN  3.000


     ATOMIC BASIS SET
     ----------------
 THE CONTRACTED PRIMITIVE FUNCTIONS HAVE BEEN UNNORMALIZED
 THE CONTRACTED BASIS FUNCTIONS ARE NOW NORMALIZED TO UNITY

  SHELL TYPE  PRIMITIVE        EXPONENT          CONTRACTION COEFFICIENT(S)

 C         

      1   S       1          3047.5248800    0.001834737132
      1   S       2           457.3695180    0.014037322813
      1   S       3           103.9486850    0.068842622264
      1   S       4            29.2101553    0.232184443216
      1   S       5             9.2866630    0.467941348435
      1   S       6             3.1639270    0.362311985337

      2   L       7             7.8682723   -0.119332419775    0.068999066591
      2   L       8             1.8812885   -0.160854151696    0.316423960957
      2   L       9             0.5442493    1.143456437840    0.744308290898

      3   L      10             0.1687145    1.000000000000    1.000000000000

      4   D      11             0.8000000    1.000000000000

 O         

      5   S      12          5484.6716600    0.001831074430
      5   S      13           825.2349460    0.013950172200
      5   S      14           188.0469580    0.068445078098
      5   S      15            52.9645000    0.232714335992
      5   S      16            16.8975704    0.470192897984
      5   S      17             5.7996353    0.358520852987

      6   L      18            15.5396162   -0.110777549525    0.070874268231
      6   L      19             3.5999336   -0.148026262701    0.339752839147
      6   L      20             1.0137618    1.130767015354    0.727158577316

      7   L      21             0.2700058    1.000000000000    1.000000000000

      8   D      22             0.8000000    1.000000000000

 O         

      9   S      23          5484.6716600    0.001831074430
      9   S      24           825.2349460    0.013950172200
      9   S      25           188.0469580    0.068445078098
      9   S      26            52.9645000    0.232714335992
      9   S      27            16.8975704    0.470192897984
      9   S      28             5.7996353    0.358520852987

     10   L      29            15.5396162   -0.110777549525    0.070874268231
     10   L      30             3.5999336   -0.148026262701    0.339752839147
     10   L      31             1.0137618    1.130767015354    0.727158577316

     11   L      32             0.2700058    1.000000000000    1.000000000000

     12   D      33             0.8000000    1.000000000000

 H         

     13   S      34            18.7311370    0.033494604338
     13   S      35             2.8253944    0.234726953484
     13   S      36             0.6401217    0.813757326146

     14   S      37             0.1612778    1.000000000000

 TOTAL NUMBER OF BASIS SET SHELLS             =   14
 NUMBER OF CARTESIAN GAUSSIAN BASIS FUNCTIONS =   47
 NOTE: THIS RUN WILL RESTRICT THE MO VARIATION SPACE TO SPHERICAL HARMONICS.
 THE NUMBER OF ORBITALS KEPT IN THE VARIATIONAL SPACE WILL BE PRINTED LATER.
 NUMBER OF ELECTRONS                          =   23
 CHARGE OF MOLECULE                           =    0
 SPIN MULTIPLICITY                            =    2
 NUMBER OF OCCUPIED ORBITALS (ALPHA)          =   12
 NUMBER OF OCCUPIED ORBITALS (BETA )          =   11
 TOTAL NUMBER OF ATOMS                        =    4
 THE NUCLEAR REPULSION ENERGY IS       62.0219608970

     $CONTRL OPTIONS
     ---------------
 SCFTYP=UHF          RUNTYP=OPTIMIZE     EXETYP=RUN     
 MPLEVL=       0     CITYP =NONE         CCTYP =NONE         VBTYP =NONE    
 DFTTYP=NONE         TDDFT =NONE    
 MULT  =       2     ICHARG=       0     NZVAR =       6     COORD =ZMT     
 PP    =NONE         RELWFN=NONE         LOCAL =NONE         NUMGRD=       F
 ISPHER=       1     NOSYM =       1     MAXIT =     200     UNITS =ANGS    
 PLTORB=       F     MOLPLT=       F     AIMPAC=       F     FRIEND=        
 NPRINT=       7     IREST =       0     GEOM  =INPUT   
 NORMF =       0     NORMP =       0     ITOL  =      20     ICUT  =       9
 INTTYP=BEST         GRDTYP=BEST         QMTTOL= 1.0E-06

     $SYSTEM OPTIONS
     ---------------
  REPLICATED MEMORY=   524288000 WORDS (ON EVERY NODE).
 DISTRIBUTED MEMDDI=           0 MILLION WORDS IN AGGREGATE,
 MEMDDI DISTRIBUTED OVER   4 PROCESSORS IS           0 WORDS/PROCESSOR.
 TOTAL MEMORY REQUESTED ON EACH PROCESSOR=   524288000 WORDS.
 TIMLIM=      525600.00 MINUTES, OR     365.0 DAYS.
 PARALL= T  BALTYP=  DLB     KDIAG=    0  COREFL= F
 MXSEQ2=     300 MXSEQ3=     150

          ----------------
          PROPERTIES INPUT
          ----------------

     MOMENTS            FIELD           POTENTIAL          DENSITY
 IEMOM =       1   IEFLD =       0   IEPOT =       0   IEDEN =       0
 WHERE =COMASS     WHERE =NUCLEI     WHERE =NUCLEI     WHERE =NUCLEI  
 OUTPUT=BOTH       OUTPUT=BOTH       OUTPUT=BOTH       OUTPUT=BOTH    
 IEMINT=       0   IEFINT=       0                     IEDINT=       0
                                                       MORB  =       0
          EXTRAPOLATION IN EFFECT
          SOSCF IN EFFECT
 ORBITAL PRINTING OPTION: NPREO=     1    47     2     1

     -------------------------------
     INTEGRAL TRANSFORMATION OPTIONS
     -------------------------------
     NWORD  =            0
     CUTOFF = 1.0E-09     MPTRAN =       0
     DIRTRF =       T     AOINTS =DUP     

          ----------------------
          INTEGRAL INPUT OPTIONS
          ----------------------
 NOPK  =       1 NORDER=       0 SCHWRZ=       T

   --- ENCODED Z MATRIX ---
 COORD  TYPE   I   J   K   L   M   N
    1      1    2   1
    2      1    3   1
    3      2    3   1   2
    4      1    4   1
    5      2    4   1   2
    6      3    4   1   2   3

 THE DETERMINANT OF THE G MATRIX IS 10**(    -4)


                     --------------------
                     INTERNAL COORDINATES
                     --------------------

                 - - ATOMS - -         COORDINATE      COORDINATE
 NO.   TYPE    I  J  K  L  M  N        (BOHR,RAD)       (ANG,DEG)
 ----------------------------------------------------------------
   1 STRETCH   2  1                     2.2941085       1.2139900
   2 STRETCH   3  1                     2.5379020       1.3430000
   3 BEND      3  1  2                  2.1230272     121.6405000
   4 STRETCH   4  1                     2.0768278       1.0990100
   5 BEND      4  1  2                  2.0284182     116.2198000
   6 TORSION   4  1  2  3               3.1415927     180.0000000

     ------------------------------------------
     THE POINT GROUP IS C1 , NAXIS= 1, ORDER= 1
     ------------------------------------------

 -- VARIATIONAL SPACE WILL BE RESTRICTED TO PURE SPHERICAL HARMONICS ONLY --
 AFTER EXCLUDING CONTAMINANT COMBINATIONS FROM THE CARTESIAN GAUSSIAN BASIS
 SET, THE NUMBER OF SPHERICAL HARMONICS KEPT IN THE VARIATION SPACE IS   44

     DIMENSIONS OF THE SYMMETRY SUBSPACES ARE
 A   =   44

 ..... DONE SETTING UP THE RUN .....
 CPU     0: STEP CPU TIME=     0.00 TOTAL CPU TIME=        0.0 (    0.0 MIN)
 TOTAL WALL CLOCK TIME=        0.0 SECONDS, CPU UTILIZATION IS   0.00%


          -----------------------------
          STATIONARY POINT LOCATION RUN
          -----------------------------

 OBTAINING INITIAL HESSIAN, HESS=GUESS   
 DIAGONAL GUESS HESSIAN IN INTERNAL COORDS IS
     1  0.5480     2  0.4265     3  0.2587     4  0.3404     5  0.2318
     6  0.2500

          PARAMETERS CONTROLLING GEOMETRY SEARCH ARE
          METHOD =QA                  UPHESS =BFGS    
          NNEG   =         0          NFRZ   =         0
          NSTEP  =        20          IFOLOW =         1
          HESS   =GUESS               RESTAR =         F
          IHREP  =         0          HSSEND =         F
          NPRT   =         0          NPUN   =         0
          OPTTOL = 1.000E-04          RMIN   = 1.500E-03
          RMAX   = 1.000E-01          RLIM   = 7.000E-02
          DXMAX  = 3.000E-01          PURIFY =         F
          MOVIE  =         F          TRUPD  =         T
          TRMAX  = 5.000E-01          TRMIN  = 5.000E-02
          ITBMAT =         5          STPT   =         F
          STSTEP = 1.000E-02          PROJCT=          T

 BEGINNING GEOMETRY SEARCH POINT NSERCH=   0 ...

 COORDINATES OF ALL ATOMS ARE (ANGS)
   ATOM   CHARGE       X              Y              Z
 ------------------------------------------------------------
 C           6.0   0.0580385180  -0.4163237260   0.0000000000
 O           8.0   1.0895278596   0.2238336439   0.0000000000
 O           8.0  -1.1434904053   0.1836573125   0.0000000000
 H           1.0   0.1653698271  -1.5100800838   0.0000000000


                     --------------------
                     INTERNAL COORDINATES
                     --------------------

                 - - ATOMS - -         COORDINATE      COORDINATE
 NO.   TYPE    I  J  K  L  M  N        (BOHR,RAD)       (ANG,DEG)
 ----------------------------------------------------------------
   1 STRETCH   2  1                     2.2941085       1.2139900
   2 STRETCH   3  1                     2.5379020       1.3430000
   3 BEND      3  1  2                  2.1230272     121.6405000
   4 STRETCH   4  1                     2.0768278       1.0990100
   5 BEND      4  1  2                  2.0284182     116.2198000
   6 TORSION   4  1  2  3               3.1415927     180.0000000

          ********************
          1 ELECTRON INTEGRALS
          ********************
 ...... END OF ONE-ELECTRON INTEGRALS ......
 CPU     0: STEP CPU TIME=     0.00 TOTAL CPU TIME=        0.0 (    0.0 MIN)
 TOTAL WALL CLOCK TIME=        0.0 SECONDS, CPU UTILIZATION IS   0.00%

          -------------
          GUESS OPTIONS
          -------------
          GUESS =HUCKEL            NORB  =       0          NORDER=       0
          MIX   =       F          PRTMO =       F          PUNMO =       F
          TOLZ  = 1.0E-08          TOLE  = 1.0E-05
          SYMDEN=       F          PURIFY=       F

 INITIAL GUESS ORBITALS GENERATED BY HUCKEL   ROUTINE.
 HUCKEL GUESS REQUIRES     20297 WORDS.

 STATISTICS FOR GENERATION OF SYMMETRY ORBITAL -Q- MATRIX
 NUMBER OF CARTESIAN ATOMIC ORBITALS=         47
 NUMBER OF SPHERICAL CONTAMINANTS DROPPED=     3
 NUMBER OF LINEARLY DEPENDENT MOS DROPPED=     0
 TOTAL NUMBER OF MOS IN VARIATION SPACE=      44

 SYMMETRIES FOR INITIAL GUESS ORBITALS FOLLOW.  ALPHA SET(S).
    12 ORBITALS ARE OCCUPIED (    3 CORE ORBITALS).
     4=A        5=A        6=A        7=A        8=A        9=A       10=A   
    11=A       12=A       13=A       14=A       15=A       16=A       17=A   
    18=A       19=A       20=A       21=A       22=A   

 SYMMETRIES FOR INITIAL GUESS ORBITALS FOLLOW.   BETA SET(S).
    11 ORBITALS ARE OCCUPIED (    3 CORE ORBITALS).
     4=A        5=A        6=A        7=A        8=A        9=A       10=A   
    11=A       12=A       13=A       14=A       15=A       16=A       17=A   
    18=A       19=A       20=A       21=A   
 ...... END OF INITIAL ORBITAL SELECTION ......
 CPU     0: STEP CPU TIME=     0.02 TOTAL CPU TIME=        0.0 (    0.0 MIN)
 TOTAL WALL CLOCK TIME=        0.0 SECONDS, CPU UTILIZATION IS 100.00%

                    ----------------------
                    AO INTEGRAL TECHNOLOGY
                    ----------------------
     S,P,L SHELL ROTATED AXIS INTEGRALS, REPROGRAMMED BY
        KAZUYA ISHIMURA (IMS) AND JOSE SIERRA (SYNSTAR).
     S,P,D,L SHELL ROTATED AXIS INTEGRALS PROGRAMMED BY
        KAZUYA ISHIMURA (INSTITUTE FOR MOLECULAR SCIENCE).
     S,P,D,F,G SHELL TO TOTAL QUARTET ANGULAR MOMENTUM SUM 5,
        ERIC PROGRAM BY GRAHAM FLETCHER (ELORET AND NASA ADVANCED
        SUPERCOMPUTING DIVISION, AMES RESEARCH CENTER).
     S,P,D,F,G,L SHELL GENERAL RYS QUADRATURE PROGRAMMED BY
        MICHEL DUPUIS (PACIFIC NORTHWEST NATIONAL LABORATORY).

          --------------------
          2 ELECTRON INTEGRALS
          --------------------

 DIRECT SCF METHOD SKIPS INTEGRAL STORAGE ON DISK.
 DIRECT TRANSFORMATION SKIPS AO INTEGRAL STORAGE ON DISK.
  ...... END OF TWO-ELECTRON INTEGRALS .....
 CPU     0: STEP CPU TIME=     0.00 TOTAL CPU TIME=        0.0 (    0.0 MIN)
 TOTAL WALL CLOCK TIME=        0.0 SECONDS, CPU UTILIZATION IS  66.67%

          ---------------------------
                  UHF SCF CALCULATION
          ---------------------------

     NUCLEAR ENERGY =        62.0219608970
     MAXIT =200     NPUNCH=  2     MULT=  2
     EXTRAP=T  DAMP=F  SHIFT=F  RSTRCT=F  DIIS=F  SOSCF=T
     DENSITY MATRIX CONV=  2.00E-05
     SOSCF WILL OPTIMIZE     384 ALPHA AND     363 BETA ROTATION ANGLES.
     SOGTOL= 2.500E-01
     MEMORY REQUIRED FOR UHF/ROHF ITERS=     73677 WORDS.

 DIRECT SCF CALCULATION, SCHWRZ=T   FDIFF=T
 SCHWARZ INEQUALITY OVERHEAD:      1127 INTEGRALS, T=        0.00

                                                                                NONZERO     BLOCKS
 ITER EX      TOTAL ENERGY        E CHANGE  DENSITY CHANGE    ORB. GRAD       INTEGRALS    SKIPPED
   1  0     -187.4228042121  -187.4228042121   0.356482469   0.000000000         328541        132
          ---------------START SECOND ORDER SCF---------------
   2  1     -187.8955746169    -0.4727704048   0.305757199   0.160618701         328533        139
   3  2     -187.8808575770     0.0147170399   0.157803556   0.139678431         328533        139
   4  3     -188.0563266467    -0.1754690697   0.071689646   0.044451852         328454        158
   5  4     -188.0760295788    -0.0197029322   0.046056905   0.021517116         328410        167
   6  5     -188.0832384033    -0.0072088245   0.033644558   0.014739742         328334        178
   7  6     -188.0861233505    -0.0028849472   0.007308490   0.006825129         328381        173
   8  7     -188.0866523266    -0.0005289761   0.010153567   0.003782528         328008        224
   9  8     -188.0868918445    -0.0002395179   0.003381213   0.002037657         327961        229
  10  9     -188.0869304271    -0.0000385826   0.002823171   0.000879017         327109        294
  11 10     -188.0869497489    -0.0000193217   0.001331347   0.000542074         327217        292
  12 11     -188.0869539126    -0.0000041637   0.001518986   0.000302407         325230        405
  13 12     -188.0869559838    -0.0000020712   0.001795854   0.000284782         324722        449
  14 13     -188.0869574680    -0.0000014842   0.002634705   0.000245438         324598        456
  15 14     -188.0869590641    -0.0000015962   0.002519945   0.000250121         325035        436
  16 15     -188.0869602812    -0.0000012170   0.001463103   0.000184208         324982        449
  17 16     -188.0869609017    -0.0000006205   0.000285584   0.000092924         324293        481
  18 17     -188.0869610660    -0.0000001643   0.000108944   0.000048132         322650        546
  19 18     -188.0869610964    -0.0000000304   0.000065278   0.000026277         321483        604
  20 19     -188.0869611018    -0.0000000054   0.000023571   0.000009510         319841        685
  21 20     -188.0869611028    -0.0000000010   0.000011849   0.000002838         318408        754
  22 21     -188.0869611030    -0.0000000002   0.000004885   0.000001484         317148        805

          -----------------
          DENSITY CONVERGED
          -----------------
     TIME TO FORM FOCK OPERATORS=       0.3 SECONDS (       0.0 SEC/ITER)
     FOCK TIME ON FIRST ITERATION=       0.0, LAST ITERATION=       0.0
     TIME TO SOLVE SCF EQUATIONS=       0.0 SECONDS (       0.0 SEC/ITER)

 FINAL UHF ENERGY IS     -188.0869611030 AFTER  22 ITERATIONS

          --------------------
          SPIN SZ   =    0.500
          S-SQUARED =    0.764
          --------------------

  ----- ALPHA SET ----- 

          ------------
          EIGENVECTORS
          ------------

                      1          2          3          4          5
                  -20.7477   -20.5651   -11.4233    -1.5912    -1.3134
                     A          A          A          A          A   
    1  C  1  S    0.000152   0.000054   0.996195  -0.100407  -0.070190
    2  C  1  S    0.000129   0.000171   0.023817   0.191079   0.140318
    3  C  1  X   -0.000028  -0.000312   0.001613   0.130254  -0.181200
    4  C  1  Y   -0.000008   0.000164   0.001146   0.088560   0.043647
    5  C  1  Z    0.000000   0.000000   0.000000   0.000000   0.000000
    6  C  1  S    0.006104   0.004817  -0.004518  -0.004863   0.052767
    7  C  1  X    0.002939  -0.003105   0.000075  -0.017260   0.012972
    8  C  1  Y    0.003184   0.003260   0.003242  -0.042260  -0.019181
    9  C  1  Z    0.000000   0.000000   0.000000   0.000000   0.000000
   10  C  1 XX   -0.000435  -0.000212   0.001116   0.021335   0.011250
   11  C  1 YY    0.000251   0.000235   0.000160  -0.002869  -0.001871
   12  C  1 ZZ    0.000184  -0.000023  -0.001276  -0.018467  -0.009378
   13  C  1 XY   -0.000653   0.000258   0.000429   0.024033  -0.026668
   14  C  1 XZ    0.000000   0.000000   0.000000   0.000000   0.000000
   15  C  1 YZ    0.000000   0.000000   0.000000   0.000000   0.000000
   16  O  2  S    0.995572   0.000137  -0.000292  -0.206744   0.053668
   17  O  2  S    0.024251   0.000018   0.000672   0.474699  -0.125758
   18  O  2  X   -0.001845   0.000078  -0.000032  -0.114148  -0.022845
   19  O  2  Y   -0.001139   0.000117   0.000056  -0.071555   0.022371
   20  O  2  Z    0.000000   0.000000   0.000000   0.000000   0.000000
   21  O  2  S   -0.012295  -0.000915  -0.003602   0.431550  -0.125079
   22  O  2  X    0.003466   0.000881   0.002722  -0.053561  -0.013661
   23  O  2  Y    0.001836  -0.000790   0.001051  -0.031209   0.015861
   24  O  2  Z    0.000000   0.000000   0.000000   0.000000   0.000000
   25  O  2 XX   -0.000142  -0.000196  -0.000517   0.006591   0.004913
   26  O  2 YY    0.000210   0.000308   0.000033   0.006801  -0.006778
   27  O  2 ZZ   -0.000069  -0.000112   0.000484  -0.013392   0.001865
   28  O  2 XY   -0.000234   0.000047  -0.000567  -0.000343   0.002500
   29  O  2 XZ    0.000000   0.000000   0.000000   0.000000   0.000000
   30  O  2 YZ    0.000000   0.000000   0.000000   0.000000   0.000000
   31  O  3  S   -0.000100   0.995893  -0.000123  -0.027453  -0.201462
   32  O  3  S    0.000053   0.022279   0.000439   0.058184   0.446016
   33  O  3  X   -0.000087   0.001675   0.000130   0.029750   0.092706
   34  O  3  Y    0.000106  -0.000756   0.000003  -0.005733  -0.045473
   35  O  3  Z    0.000000   0.000000   0.000000   0.000000   0.000000
   36  O  3  S   -0.000911  -0.010778  -0.001471   0.068065   0.458393
   37  O  3  X   -0.000764  -0.003474  -0.001502   0.024085   0.056279
   38  O  3  Y   -0.000623   0.001351   0.000135   0.000191  -0.025898
   39  O  3  Z    0.000000   0.000000   0.000000   0.000000   0.000000
   40  O  3 XX   -0.000203  -0.000264  -0.000477   0.005728   0.012009
   41  O  3 YY    0.000291   0.000211   0.000120  -0.003572  -0.003697
   42  O  3 ZZ   -0.000089   0.000053   0.000358  -0.002156  -0.008312
   43  O  3 XY   -0.000049   0.000252   0.000332  -0.003134  -0.009613
   44  O  3 XZ    0.000000   0.000000   0.000000   0.000000   0.000000
   45  O  3 YZ    0.000000   0.000000   0.000000   0.000000   0.000000
   46  H  4  S   -0.000282  -0.000078  -0.000286   0.024454   0.021441
   47  H  4  S    0.000682   0.001100   0.003199  -0.015357  -0.010223

                      6          7          8          9         10
                   -0.9100    -0.8241    -0.7240    -0.7185    -0.5838
                     A          A          A          A          A   
    1  C  1  S    0.130813   0.034013  -0.059280   0.000000  -0.024804
    2  C  1  S   -0.287610  -0.083909   0.134026   0.000000   0.068605
    3  C  1  X   -0.123933  -0.067919  -0.246951   0.000000  -0.234861
    4  C  1  Y    0.167284  -0.261190  -0.189955   0.000000   0.239249
    5  C  1  Z    0.000000   0.000000   0.000000   0.235763   0.000000
    6  C  1  S   -0.207675   0.006628   0.179521   0.000000  -0.005497
    7  C  1  X   -0.032196   0.007909  -0.019878   0.000000  -0.036452
    8  C  1  Y    0.078240  -0.029522  -0.083131   0.000000   0.075156
    9  C  1  Z    0.000000   0.000000   0.000000   0.093901   0.000000
   10  C  1 XX   -0.003265   0.003479  -0.027761   0.000000   0.027739
   11  C  1 YY   -0.012279  -0.007192   0.029811   0.000000  -0.027938
   12  C  1 ZZ    0.015545   0.003713  -0.002050   0.000000   0.000199
   13  C  1 XY    0.001417  -0.023018  -0.015450   0.000000  -0.022316
   14  C  1 XZ    0.000000   0.000000   0.000000   0.024812   0.000000
   15  C  1 YZ    0.000000   0.000000   0.000000   0.018435   0.000000
   16  O  2  S   -0.078845  -0.046074  -0.016991   0.000000   0.000902
   17  O  2  S    0.195317   0.113668   0.045124   0.000000  -0.004610
   18  O  2  X    0.154337   0.536659   0.065187   0.000000   0.212384
   19  O  2  Y    0.352090  -0.209911   0.459599   0.000000  -0.265505
   20  O  2  Z    0.000000   0.000000   0.000000   0.595005   0.000000
   21  O  2  S    0.273493   0.169323   0.078173   0.000000   0.012577
   22  O  2  X    0.072254   0.290096   0.018380   0.000000   0.138234
   23  O  2  Y    0.167249  -0.131148   0.279534   0.000000  -0.188528
   24  O  2  Z    0.000000   0.000000   0.000000   0.371014   0.000000
   25  O  2 XX   -0.000750  -0.030578   0.003552   0.000000  -0.004316
   26  O  2 YY   -0.005259   0.025172  -0.010082   0.000000   0.003785
   27  O  2 ZZ    0.006008   0.005406   0.006530   0.000000   0.000531
   28  O  2 XY   -0.027532  -0.009622  -0.019196   0.000000   0.000532
   29  O  2 XZ    0.000000   0.000000   0.000000  -0.031334   0.000000
   30  O  2 YZ    0.000000   0.000000   0.000000  -0.021943   0.000000
   31  O  3  S   -0.048608  -0.039906   0.064651   0.000000   0.051137
   32  O  3  S    0.113455   0.092390  -0.151740   0.000000  -0.123120
   33  O  3  X   -0.038106  -0.113434   0.157941   0.000000   0.431849
   34  O  3  Y    0.057322  -0.043085  -0.167337   0.000000  -0.117323
   35  O  3  Z    0.000000   0.000000   0.000000   0.105644   0.000000
   36  O  3  S    0.129801   0.122712  -0.222839   0.000000  -0.199851
   37  O  3  X   -0.024605  -0.061379   0.086759   0.000000   0.280589
   38  O  3  Y    0.025041  -0.026822  -0.086398   0.000000  -0.080553
   39  O  3  Z    0.000000   0.000000   0.000000   0.063053   0.000000
   40  O  3 XX   -0.000759  -0.008119   0.003049   0.000000   0.022346
   41  O  3 YY    0.000005   0.005795   0.002413   0.000000  -0.010818
   42  O  3 ZZ    0.000755   0.002324  -0.005462   0.000000  -0.011527
   43  O  3 XY    0.005264   0.000325  -0.013527   0.000000  -0.015203
   44  O  3 XZ    0.000000   0.000000   0.000000   0.010145   0.000000
   45  O  3 YZ    0.000000   0.000000   0.000000  -0.004558   0.000000
   46  H  4  S   -0.191562   0.086691   0.178957   0.000000  -0.159237
   47  H  4  S   -0.063757   0.065090   0.094354   0.000000  -0.140024

                     11         12         13         14         15
                   -0.4666    -0.4611     0.1409     0.2435     0.3900
                     A          A          A          A          A   
    1  C  1  S   -0.005585   0.000000   0.000000   0.111120  -0.010853
    2  C  1  S    0.007679   0.000000   0.000000  -0.138291  -0.062184
    3  C  1  X    0.023849   0.000000   0.000000  -0.018250   0.174667
    4  C  1  Y   -0.074296   0.000000   0.000000   0.304687   0.063780
    5  C  1  Z    0.000000   0.198728   0.486615   0.000000   0.000000
    6  C  1  S    0.087642   0.000000   0.000000  -1.855136   0.981997
    7  C  1  X    0.106895   0.000000   0.000000  -0.072515   2.269361
    8  C  1  Y    0.064857   0.000000   0.000000   0.911658   0.458844
    9  C  1  Z    0.000000   0.169896   0.726873   0.000000   0.000000
   10  C  1 XX   -0.033992   0.000000   0.000000   0.006878   0.015255
   11  C  1 YY    0.035014   0.000000   0.000000   0.000365  -0.010256
   12  C  1 ZZ   -0.001021   0.000000   0.000000  -0.007243  -0.005000
   13  C  1 XY   -0.028975   0.000000   0.000000   0.006056   0.001851
   14  C  1 XZ    0.000000  -0.040886   0.015625   0.000000   0.000000
   15  C  1 YZ    0.000000   0.007768  -0.026359   0.000000   0.000000
   16  O  2  S    0.013146   0.000000   0.000000  -0.013493   0.079903
   17  O  2  S   -0.025839   0.000000   0.000000   0.029887  -0.106238
   18  O  2  X    0.115994   0.000000   0.000000  -0.056939   0.011252
   19  O  2  Y    0.046062   0.000000   0.000000  -0.072493   0.151674
   20  O  2  Z    0.000000  -0.251733  -0.257872   0.000000   0.000000
   21  O  2  S   -0.136306   0.000000   0.000000   0.160150  -1.857756
   22  O  2  X    0.098823   0.000000   0.000000  -0.044688   0.576135
   23  O  2  Y    0.055559   0.000000   0.000000  -0.225107   0.564622
   24  O  2  Z    0.000000  -0.215646  -0.346763   0.000000   0.000000
   25  O  2 XX   -0.004873   0.000000   0.000000   0.006158  -0.027686
   26  O  2 YY    0.005064   0.000000   0.000000   0.000986   0.005587
   27  O  2 ZZ   -0.000192   0.000000   0.000000  -0.007143   0.022099
   28  O  2 XY   -0.003629   0.000000   0.000000  -0.006946  -0.031109
   29  O  2 XZ    0.000000   0.004258  -0.012037   0.000000   0.000000
   30  O  2 YZ    0.000000   0.005717  -0.011617   0.000000   0.000000
   31  O  3  S   -0.002415   0.000000   0.000000  -0.016433  -0.041996
   32  O  3  S    0.004763   0.000000   0.000000   0.032479   0.025772
   33  O  3  X    0.246558   0.000000   0.000000   0.072259   0.004196
   34  O  3  Y    0.569886   0.000000   0.000000  -0.098647  -0.172656
   35  O  3  Z    0.000000   0.531686  -0.323742   0.000000   0.000000
   36  O  3  S    0.024095   0.000000   0.000000   0.136187   0.950056
   37  O  3  X    0.183607   0.000000   0.000000   0.090907   0.221309
   38  O  3  Y    0.418349   0.000000   0.000000  -0.235218  -0.498361
   39  O  3  Z    0.000000   0.411025  -0.427323   0.000000   0.000000
   40  O  3 XX    0.015996   0.000000   0.000000   0.005455   0.003956
   41  O  3 YY   -0.017008   0.000000   0.000000   0.001793  -0.002627
   42  O  3 ZZ    0.001012   0.000000   0.000000  -0.007248  -0.001329
   43  O  3 XY    0.018597   0.000000   0.000000  -0.003930  -0.017748
   44  O  3 XZ    0.000000   0.032827   0.001001   0.000000   0.000000
   45  O  3 YZ    0.000000  -0.016545  -0.003249   0.000000   0.000000
   46  H  4  S    0.118179   0.000000   0.000000   0.035239  -0.048491
   47  H  4  S    0.162897   0.000000   0.000000   2.165775  -0.078393

                     16         17         18         19         20
                    0.4279     0.7009     0.7611     0.8395     0.8728
                     A          A          A          A          A   
    1  C  1  S   -0.081672   0.000000   0.059418  -0.040887   0.019766
    2  C  1  S   -0.141140   0.000000  -0.711312   0.783972   0.700208
    3  C  1  X   -0.088113   0.000000   0.614288   0.810040  -0.318527
    4  C  1  Y    0.256036   0.000000  -0.599113   0.413948  -0.395492
    5  C  1  Z    0.000000  -1.031791   0.000000   0.000000   0.000000
    6  C  1  S    2.242745   0.000000   0.936330  -0.728720  -1.442414
    7  C  1  X   -0.542625   0.000000  -0.729341  -0.637146   0.162435
    8  C  1  Y    1.744365   0.000000   1.223851  -0.128619   1.541992
    9  C  1  Z    0.000000   1.226901   0.000000   0.000000   0.000000
   10  C  1 XX    0.001982   0.000000   0.125406  -0.070633  -0.006230
   11  C  1 YY   -0.023338   0.000000  -0.047156   0.037587   0.089660
   12  C  1 ZZ    0.021356   0.000000  -0.078249   0.033046  -0.083430
   13  C  1 XY    0.020925   0.000000  -0.063234  -0.137162   0.017678
   14  C  1 XZ    0.000000  -0.005062   0.000000   0.000000   0.000000
   15  C  1 YZ    0.000000  -0.030501   0.000000   0.000000   0.000000
   16  O  2  S    0.061867   0.000000   0.007064   0.041239  -0.009661
   17  O  2  S   -0.117259   0.000000  -0.005174  -0.185851   0.067634
   18  O  2  X    0.135719   0.000000  -0.054712   0.337071   0.156386
   19  O  2  Y   -0.072606   0.000000  -0.145192   0.073619  -0.337851
   20  O  2  Z    0.000000  -0.072562   0.000000   0.000000   0.000000
   21  O  2  S   -1.126210   0.000000  -0.325252   0.295900  -0.168233
   22  O  2  X    0.749872   0.000000   0.220934   0.240661  -0.152338
   23  O  2  Y   -0.014814   0.000000   0.044810   0.224421  -0.010268
   24  O  2  Z    0.000000  -0.100087   0.000000   0.000000   0.000000
   25  O  2 XX   -0.021200   0.000000  -0.095595   0.119484   0.006699
   26  O  2 YY   -0.016428   0.000000   0.070132  -0.024479  -0.003243
   27  O  2 ZZ    0.037628   0.000000   0.025463  -0.095004  -0.003456
   28  O  2 XY   -0.022305   0.000000   0.002143   0.152065  -0.052922
   29  O  2 XZ    0.000000   0.076123   0.000000   0.000000   0.000000
   30  O  2 YZ    0.000000   0.039189   0.000000   0.000000   0.000000
   31  O  3  S    0.093609   0.000000  -0.013843  -0.008816   0.011573
   32  O  3  S   -0.131104   0.000000   0.138345   0.055344  -0.030986
   33  O  3  X   -0.227078   0.000000   0.321352   0.001945  -0.187515
   34  O  3  Y    0.035908   0.000000  -0.195359  -0.077267  -0.223134
   35  O  3  Z    0.000000  -0.042608   0.000000   0.000000   0.000000
   36  O  3  S   -1.559691   0.000000  -0.813160  -0.079087  -0.052457
   37  O  3  X   -0.958319   0.000000  -0.147065   0.077245  -0.112126
   38  O  3  Y    0.176156   0.000000  -0.050185  -0.016640  -0.055094
   39  O  3  Z    0.000000  -0.165772   0.000000   0.000000   0.000000
   40  O  3 XX   -0.040030   0.000000  -0.121610   0.040610   0.036229
   41  O  3 YY    0.008501   0.000000   0.044121  -0.048065  -0.003237
   42  O  3 ZZ    0.031530   0.000000   0.077489   0.007454  -0.032991
   43  O  3 XY    0.021047   0.000000   0.090978   0.053947  -0.013392
   44  O  3 XZ    0.000000  -0.055889   0.000000   0.000000   0.000000
   45  O  3 YZ    0.000000   0.023381   0.000000   0.000000   0.000000
   46  H  4  S   -0.167496   0.000000   0.016992   0.230330   0.657076
   47  H  4  S    0.804769   0.000000   0.451169   0.042031   0.807961

                     21         22         23         24         25
                    1.0346     1.0430     1.1373     1.1632     1.2173
                     A          A          A          A          A   
    1  C  1  S    0.061126   0.028911   0.000000   0.017822  -0.013713
    2  C  1  S   -0.843662   0.900411   0.000000   0.389332  -0.134157
    3  C  1  X   -0.018918   0.065406   0.000000  -0.008314   0.201921
    4  C  1  Y    0.646978  -0.180263   0.000000  -0.165030  -0.255174
    5  C  1  Z    0.000000   0.000000   0.102823   0.000000   0.000000
    6  C  1  S    2.371945  -0.443106   0.000000  -0.326365  -0.844011
    7  C  1  X    0.167564   0.167874   0.000000  -0.704534  -0.366785
    8  C  1  Y   -0.959986   0.688267   0.000000   1.453818   0.743815
    9  C  1  Z    0.000000   0.000000  -0.517441   0.000000   0.000000
   10  C  1 XX    0.008311   0.140386   0.000000  -0.003777  -0.199721
   11  C  1 YY    0.135577  -0.054393   0.000000   0.095931   0.126952
   12  C  1 ZZ   -0.143888  -0.085992   0.000000  -0.092154   0.072769
   13  C  1 XY    0.066755   0.167281   0.000000  -0.067110   0.147288
   14  C  1 XZ    0.000000   0.000000  -0.063912   0.000000   0.000000
   15  C  1 YZ    0.000000   0.000000   0.001059   0.000000   0.000000
   16  O  2  S    0.013855   0.045864   0.000000  -0.003440   0.004603
   17  O  2  S   -0.046194  -0.223397   0.000000   0.056855  -0.116211
   18  O  2  X   -0.312878  -0.613072   0.000000  -0.320163  -0.197031
   19  O  2  Y   -0.246951  -0.306134   0.000000   0.615203   0.317286
   20  O  2  Z    0.000000   0.000000  -0.913917   0.000000   0.000000
   21  O  2  S   -0.387955  -0.339313   0.000000  -0.090529   0.277472
   22  O  2  X    0.569798   1.165260   0.000000   0.611342   0.360800
   23  O  2  Y    0.429259   0.586352   0.000000  -1.109036  -0.752421
   24  O  2  Z    0.000000   0.000000   1.256579   0.000000   0.000000
   25  O  2 XX    0.039954  -0.043711   0.000000   0.054667   0.106509
   26  O  2 YY   -0.078094   0.027831   0.000000  -0.038104  -0.090081
   27  O  2 ZZ    0.038140   0.015880   0.000000  -0.016563  -0.016428
   28  O  2 XY   -0.089714   0.000825   0.000000  -0.025720  -0.068207
   29  O  2 XZ    0.000000   0.000000   0.034944   0.000000   0.000000
   30  O  2 YZ    0.000000   0.000000   0.021482   0.000000   0.000000
   31  O  3  S    0.000902  -0.002398   0.000000   0.043974  -0.041113
   32  O  3  S    0.025393   0.059520   0.000000  -0.267247   0.240338
   33  O  3  X    0.074332   0.042636   0.000000   0.411929  -0.615481
   34  O  3  Y   -0.054254   0.115309   0.000000  -0.224048   0.201559
   35  O  3  Z    0.000000   0.000000   0.159538   0.000000   0.000000
   36  O  3  S   -0.199749  -0.070222   0.000000  -0.483779  -0.137501
   37  O  3  X   -0.127672  -0.075780   0.000000  -0.809408   0.991143
   38  O  3  Y    0.178356  -0.074605   0.000000   0.221499  -0.470157
   39  O  3  Z    0.000000   0.000000  -0.074792   0.000000   0.000000
   40  O  3 XX    0.007104  -0.033943   0.000000  -0.023624  -0.029435
   41  O  3 YY   -0.025859   0.049663   0.000000  -0.004276   0.005651
   42  O  3 ZZ    0.018755  -0.015720   0.000000   0.027900   0.023784
   43  O  3 XY    0.048223  -0.063626   0.000000   0.003069   0.021977
   44  O  3 XZ    0.000000   0.000000   0.028063   0.000000   0.000000
   45  O  3 YZ    0.000000   0.000000   0.020836   0.000000   0.000000
   46  H  4  S    0.795226  -0.279398   0.000000   0.242927   0.153443
   47  H  4  S   -1.850609   0.828320   0.000000   0.736913   0.459382

                     26         27         28         29         30
                    1.2833     1.3343     1.6362     1.6824     1.6884
                     A          A          A          A          A   
    1  C  1  S    0.000000  -0.003011   0.000000   0.000000  -0.019414
    2  C  1  S    0.000000  -0.114669   0.000000   0.000000  -0.102659
    3  C  1  X    0.000000   0.064437   0.000000   0.000000  -0.071100
    4  C  1  Y    0.000000   0.174690   0.000000   0.000000  -0.035711
    5  C  1  Z    0.067155   0.000000  -0.001795  -0.209630   0.000000
    6  C  1  S    0.000000   0.652492   0.000000   0.000000  -1.870395
    7  C  1  X    0.000000  -0.218925   0.000000   0.000000  -0.767151
    8  C  1  Y    0.000000  -1.065742   0.000000   0.000000  -1.589128
    9  C  1  Z   -0.516598   0.000000  -0.077935   0.209371   0.000000
   10  C  1 XX    0.000000   0.109689   0.000000   0.000000  -0.074834
   11  C  1 YY    0.000000  -0.120488   0.000000   0.000000   0.225953
   12  C  1 ZZ    0.000000   0.010799   0.000000   0.000000  -0.151119
   13  C  1 XY    0.000000   0.072613   0.000000   0.000000  -0.188564
   14  C  1 XZ   -0.006254   0.000000   0.582185   0.171809   0.000000
   15  C  1 YZ    0.065042   0.000000  -0.212565   0.650552   0.000000
   16  O  2  S    0.000000  -0.006732   0.000000   0.000000   0.027822
   17  O  2  S    0.000000   0.165852   0.000000   0.000000  -1.349463
   18  O  2  X    0.000000  -0.044281   0.000000   0.000000   0.075568
   19  O  2  Y    0.000000   0.045101   0.000000   0.000000   0.005870
   20  O  2  Z   -0.149958   0.000000  -0.128184  -0.079097   0.000000
   21  O  2  S    0.000000  -0.015417   0.000000   0.000000   3.224564
   22  O  2  X    0.000000   0.111340   0.000000   0.000000  -1.016836
   23  O  2  Y    0.000000   0.161071   0.000000   0.000000  -0.361436
   24  O  2  Z    0.307263   0.000000   0.015865  -0.136070   0.000000
   25  O  2 XX    0.000000   0.036900   0.000000   0.000000   0.008108
   26  O  2 YY    0.000000   0.003828   0.000000   0.000000   0.282777
   27  O  2 ZZ    0.000000  -0.040728   0.000000   0.000000  -0.290884
   28  O  2 XY    0.000000   0.005651   0.000000   0.000000  -0.274340
   29  O  2 XZ   -0.030586   0.000000  -0.094365  -0.528821   0.000000
   30  O  2 YZ    0.068303   0.000000  -0.421111   0.081951   0.000000
   31  O  3  S    0.000000  -0.000306   0.000000   0.000000   0.016941
   32  O  3  S    0.000000   0.006582   0.000000   0.000000  -0.476347
   33  O  3  X    0.000000  -0.334489   0.000000   0.000000  -0.128340
   34  O  3  Y    0.000000  -0.810241   0.000000   0.000000  -0.098414
   35  O  3  Z   -0.961030   0.000000   0.016816   0.077087   0.000000
   36  O  3  S    0.000000   0.009051   0.000000   0.000000   0.979668
   37  O  3  X    0.000000   0.511477   0.000000   0.000000   0.512072
   38  O  3  Y    0.000000   1.227275   0.000000   0.000000   0.252750
   39  O  3  Z    1.172951   0.000000   0.213453  -0.164801   0.000000
   40  O  3 XX    0.000000  -0.093215   0.000000   0.000000   0.075721
   41  O  3 YY    0.000000   0.081478   0.000000   0.000000   0.099061
   42  O  3 ZZ    0.000000   0.011737   0.000000   0.000000  -0.174782
   43  O  3 XY    0.000000  -0.081268   0.000000   0.000000   0.117166
   44  O  3 XZ   -0.020121   0.000000  -0.351527   0.152337   0.000000
   45  O  3 YZ    0.030418   0.000000   0.196137   0.160766   0.000000
   46  H  4  S    0.000000  -0.209645   0.000000   0.000000  -0.235228
   47  H  4  S    0.000000  -0.568091   0.000000   0.000000  -0.458872

                     31         32         33         34         35
                    1.7913     1.9442     1.9981     2.0006     2.1474
                     A          A          A          A          A   
    1  C  1  S   -0.001404   0.011600  -0.005809   0.000000   0.000000
    2  C  1  S   -0.017332   0.142675  -0.006442   0.000000   0.000000
    3  C  1  X    0.114624   0.000196   0.114995   0.000000   0.000000
    4  C  1  Y    0.020367   0.054631  -0.200276   0.000000   0.000000
    5  C  1  Z    0.000000   0.000000   0.000000   0.113425   0.124795
    6  C  1  S    0.244484  -2.265659   0.300588   0.000000   0.000000
    7  C  1  X    1.678589   0.527945   0.662160   0.000000   0.000000
    8  C  1  Y   -0.229287  -0.894714  -0.654810   0.000000   0.000000
    9  C  1  Z    0.000000   0.000000   0.000000   0.017753   0.074977
   10  C  1 XX    0.016588  -0.081315  -0.230565   0.000000   0.000000
   11  C  1 YY    0.121458  -0.161582   0.342831   0.000000   0.000000
   12  C  1 ZZ   -0.138046   0.242897  -0.112266   0.000000   0.000000
   13  C  1 XY    0.192164   0.174969   0.258673   0.000000   0.000000
   14  C  1 XZ    0.000000   0.000000   0.000000   0.086596   0.050853
   15  C  1 YZ    0.000000   0.000000   0.000000  -0.294447  -0.119863
   16  O  2  S   -0.012833   0.006797   0.001427   0.000000   0.000000
   17  O  2  S    0.844179  -0.562985   0.102746   0.000000   0.000000
   18  O  2  X    0.012522   0.111158   0.154307   0.000000   0.000000
   19  O  2  Y   -0.107159   0.020726  -0.141883   0.000000   0.000000
   20  O  2  Z    0.000000   0.000000   0.000000   0.006830   0.073254
   21  O  2  S   -2.044430   1.368552  -0.396393   0.000000   0.000000
   22  O  2  X    0.414823  -0.602668  -0.133093   0.000000   0.000000
   23  O  2  Y    0.651505  -0.077782   0.415930   0.000000   0.000000
   24  O  2  Z    0.000000   0.000000   0.000000  -0.000389  -0.132743
   25  O  2 XX    0.171427  -0.233855   0.428376   0.000000   0.000000
   26  O  2 YY    0.268182  -0.294858  -0.579568   0.000000   0.000000
   27  O  2 ZZ   -0.439609   0.528714   0.151192   0.000000   0.000000
   28  O  2 XY   -0.076721   0.303498  -0.110871   0.000000   0.000000
   29  O  2 XZ    0.000000   0.000000   0.000000  -0.374916   0.221415
   30  O  2 YZ    0.000000   0.000000   0.000000   0.773054   0.235839
   31  O  3  S    0.035921   0.017892  -0.024150   0.000000   0.000000
   32  O  3  S   -1.165366  -1.044164   0.049485   0.000000   0.000000
   33  O  3  X   -0.139181  -0.075109   0.263650   0.000000   0.000000
   34  O  3  Y    0.169327   0.037619  -0.147345   0.000000   0.000000
   35  O  3  Z    0.000000   0.000000   0.000000   0.086628   0.027599
   36  O  3  S    2.272339   2.370710   0.535947   0.000000   0.000000
   37  O  3  X    0.681340   0.871238   0.016362   0.000000   0.000000
   38  O  3  Y   -0.573228  -0.299714   0.059248   0.000000   0.000000
   39  O  3  Z    0.000000   0.000000   0.000000  -0.058876  -0.041052
   40  O  3 XX   -0.113023  -0.285859   0.093261   0.000000   0.000000
   41  O  3 YY    0.023571   0.223696   0.307431   0.000000   0.000000
   42  O  3 ZZ    0.089452   0.062163  -0.400692   0.000000   0.000000
   43  O  3 XY    0.124924   0.008247   0.262542   0.000000   0.000000
   44  O  3 XZ    0.000000   0.000000   0.000000  -0.419049   0.288104
   45  O  3 YZ    0.000000   0.000000   0.000000  -0.014459   0.899643
   46  H  4  S   -0.127180   0.288747  -0.551131   0.000000   0.000000
   47  H  4  S   -0.226062  -0.161601  -0.213537   0.000000   0.000000

                     36         37         38         39         40
                    2.1492     2.2112     2.4373     2.6499     2.7486
                     A          A          A          A          A   
    1  C  1  S   -0.027417   0.003250   0.048109   0.000000  -0.026073
    2  C  1  S   -0.196137  -0.093047   0.328286   0.000000   0.044104
    3  C  1  X    0.025360  -0.215291  -0.100907   0.000000  -0.290207
    4  C  1  Y    0.177564  -0.083038   0.062818   0.000000   0.130990
    5  C  1  Z    0.000000   0.000000   0.000000   0.279231   0.000000
    6  C  1  S    1.251837   0.086747  -0.759355   0.000000   0.152019
    7  C  1  X   -0.136546  -0.262347  -0.096453   0.000000  -0.184066
    8  C  1  Y    1.308014  -0.362653  -0.032648   0.000000   0.309047
    9  C  1  Z    0.000000   0.000000   0.000000   0.399806   0.000000
   10  C  1 XX    0.463308  -0.117538  -0.424568   0.000000  -0.049811
   11  C  1 YY   -0.124713   0.212686  -0.492642   0.000000   0.209776
   12  C  1 ZZ   -0.338595  -0.095149   0.917210   0.000000  -0.159965
   13  C  1 XY    0.065801  -0.264015   0.035399   0.000000   0.879742
   14  C  1 XZ    0.000000   0.000000   0.000000  -0.056936   0.000000
   15  C  1 YZ    0.000000   0.000000   0.000000   0.765471   0.000000
   16  O  2  S    0.014905  -0.024404  -0.014883   0.000000   0.021910
   17  O  2  S    0.170841   0.268702   0.134836   0.000000  -0.510087
   18  O  2  X    0.108130  -0.302284  -0.232663   0.000000   0.345907
   19  O  2  Y    0.259069  -0.070834  -0.104882   0.000000   0.216532
   20  O  2  Z    0.000000   0.000000   0.000000   0.043670   0.000000
   21  O  2  S   -1.145379   0.113549   0.297220   0.000000   0.348524
   22  O  2  X    0.462050   0.191643   0.060824   0.000000  -0.148993
   23  O  2  Y   -0.252911  -0.062277  -0.043765   0.000000  -0.440091
   24  O  2  Z    0.000000   0.000000   0.000000  -0.357949   0.000000
   25  O  2 XX   -0.171083  -0.361157  -0.054371   0.000000  -0.308825
   26  O  2 YY    0.227576   0.087054   0.303129   0.000000   0.489236
   27  O  2 ZZ   -0.056493   0.274103  -0.248758   0.000000  -0.180411
   28  O  2 XY    0.214474   0.381358  -0.194433   0.000000   0.324171
   29  O  2 XZ    0.000000   0.000000   0.000000   0.647320   0.000000
   30  O  2 YZ    0.000000   0.000000   0.000000   0.148664   0.000000
   31  O  3  S    0.015457   0.016285  -0.018347   0.000000  -0.021035
   32  O  3  S    0.257211  -0.196757   0.114748   0.000000   0.508338
   33  O  3  X   -0.117743  -0.249542   0.190436   0.000000   0.270248
   34  O  3  Y    0.187648  -0.106619  -0.102504   0.000000  -0.143746
   35  O  3  Z    0.000000   0.000000   0.000000   0.082440   0.000000
   36  O  3  S   -1.154301   0.095849   0.138066   0.000000  -0.742523
   37  O  3  X   -0.411203   0.273676  -0.025559   0.000000  -0.402718
   38  O  3  Y   -0.154176   0.249932   0.054517   0.000000   0.259868
   39  O  3  Z    0.000000   0.000000   0.000000  -0.342316   0.000000
   40  O  3 XX   -0.008880   0.507303   0.038020   0.000000   0.005377
   41  O  3 YY    0.657750  -0.313347   0.245683   0.000000  -0.254271
   42  O  3 ZZ   -0.648870  -0.193957  -0.283702   0.000000   0.248893
   43  O  3 XY    0.027143   0.528140   0.343192   0.000000   0.287640
   44  O  3 XZ    0.000000   0.000000   0.000000  -0.727985   0.000000
   45  O  3 YZ    0.000000   0.000000   0.000000   0.163483   0.000000
   46  H  4  S    0.356908  -0.266230   0.400004   0.000000   0.047397
   47  H  4  S    0.269895  -0.105110   0.016583   0.000000   0.106048

                     41         42         43         44
                    2.9055     3.0863     3.1691     3.2846
                     A          A          A          A   
    1  C  1  S    0.000000  -0.010318  -0.047641  -0.010907
    2  C  1  S    0.000000  -1.116748  -0.471420   1.016407
    3  C  1  X    0.000000  -0.075815  -1.394143   0.103876
    4  C  1  Y    0.000000  -0.629245  -0.243091   0.516296
    5  C  1  Z    0.105922   0.000000   0.000000   0.000000
    6  C  1  S    0.000000  -1.645258  -0.170567   1.508704
    7  C  1  X    0.000000   0.064880  -0.950749   0.003758
    8  C  1  Y    0.000000  -1.195519  -0.013267  -0.054937
    9  C  1  Z    0.065447   0.000000   0.000000   0.000000
   10  C  1 XX    0.000000   0.219659   0.054731   1.206913
   11  C  1 YY    0.000000  -0.648967  -0.070717  -0.736461
   12  C  1 ZZ    0.000000   0.429307   0.015986  -0.470452
   13  C  1 XY    0.000000   0.194149  -0.898932   0.049267
   14  C  1 XZ    1.025366   0.000000   0.000000   0.000000
   15  C  1 YZ    0.165517   0.000000   0.000000   0.000000
   16  O  2  S    0.000000  -0.024443  -0.046657   0.039589
   17  O  2  S    0.000000  -0.689651  -0.404834   0.118274
   18  O  2  X    0.000000   0.033543  -0.238291   0.215957
   19  O  2  Y    0.000000   0.039235  -0.124957   0.203982
   20  O  2  Z   -0.039200   0.000000   0.000000   0.000000
   21  O  2  S    0.000000   2.110191   2.038110  -1.246451
   22  O  2  X    0.000000  -1.149199  -1.026393   0.549400
   23  O  2  Y    0.000000  -0.273221  -0.658909   0.612716
   24  O  2  Z   -0.317789   0.000000   0.000000   0.000000
   25  O  2 XX    0.000000   0.767831   0.734103   0.005135
   26  O  2 YY    0.000000  -0.370952  -0.207123  -0.354908
   27  O  2 ZZ    0.000000  -0.396878  -0.526980   0.349773
   28  O  2 XY    0.000000   0.325358   0.749112  -0.790941
   29  O  2 XZ    0.609704   0.000000   0.000000   0.000000
   30  O  2 YZ    0.500983   0.000000   0.000000   0.000000
   31  O  3  S    0.000000  -0.019073   0.031200   0.036473
   32  O  3  S    0.000000  -0.574340   0.497613   0.278391
   33  O  3  X    0.000000  -0.031666  -0.062772  -0.128578
   34  O  3  Y    0.000000   0.004110   0.036727   0.073167
   35  O  3  Z   -0.007696   0.000000   0.000000   0.000000
   36  O  3  S    0.000000   1.713507  -1.600531  -1.148143
   37  O  3  X    0.000000   0.974680  -0.873342  -0.604032
   38  O  3  Y    0.000000  -0.105860   0.424315   0.519885
   39  O  3  Z    0.187655   0.000000   0.000000   0.000000
   40  O  3 XX    0.000000   0.796754  -0.696564  -0.187694
   41  O  3 YY    0.000000  -0.498320   0.265461  -0.175040
   42  O  3 ZZ    0.000000  -0.298434   0.431103   0.362734
   43  O  3 XY    0.000000  -0.148225   0.486575   0.810182
   44  O  3 XZ    0.473903   0.000000   0.000000   0.000000
   45  O  3 YZ   -0.379723   0.000000   0.000000   0.000000
   46  H  4  S    0.000000   0.294639  -0.006054   0.166644
   47  H  4  S    0.000000  -0.502717   0.042430  -0.365511

  ----- BETA SET ----- 

          ------------
          EIGENVECTORS
          ------------

                      1          2          3          4          5
                  -20.7061   -20.5617   -11.4277    -1.4763    -1.2866
                     A          A          A          A          A   
    1  C  1  S    0.000109   0.000054   0.996135  -0.125213  -0.046507
    2  C  1  S   -0.000159   0.000211   0.024128   0.248004   0.093590
    3  C  1  X   -0.000224  -0.000346   0.001702   0.125781  -0.215992
    4  C  1  Y   -0.000150   0.000184   0.001223   0.102734   0.025576
    5  C  1  Z    0.000000   0.000000   0.000000   0.000000   0.000000
    6  C  1  S    0.005114   0.004807  -0.004488   0.039177   0.041637
    7  C  1  X    0.002549  -0.003082   0.000070  -0.005003   0.006660
    8  C  1  Y    0.002728   0.003280   0.003291  -0.040717  -0.007970
    9  C  1  Z    0.000000   0.000000   0.000000   0.000000   0.000000
   10  C  1 XX   -0.000423  -0.000214   0.001173   0.023225   0.006603
   11  C  1 YY    0.000253   0.000252   0.000181  -0.002318  -0.000709
   12  C  1 ZZ    0.000170  -0.000038  -0.001354  -0.020908  -0.005895
   13  C  1 XY   -0.000643   0.000237   0.000416   0.020308  -0.030174
   14  C  1 XZ    0.000000   0.000000   0.000000   0.000000   0.000000
   15  C  1 YZ    0.000000   0.000000   0.000000   0.000000   0.000000
   16  O  2  S    0.996135   0.000098  -0.000299  -0.181914   0.078967
   17  O  2  S    0.021242   0.000021   0.000653   0.400797  -0.176936
   18  O  2  X   -0.001723   0.000064  -0.000009  -0.128700   0.017046
   19  O  2  Y   -0.001077   0.000135   0.000073  -0.082703   0.029385
   20  O  2  Z    0.000000   0.000000   0.000000   0.000000   0.000000
   21  O  2  S   -0.010526  -0.000926  -0.003634   0.376839  -0.176351
   22  O  2  X    0.002804   0.000868   0.002748  -0.055184   0.000733
   23  O  2  Y    0.001474  -0.000775   0.001062  -0.030525   0.016700
   24  O  2  Z    0.000000   0.000000   0.000000   0.000000   0.000000
   25  O  2 XX    0.000068  -0.000190  -0.000528   0.010682   0.001483
   26  O  2 YY   -0.000346   0.000306   0.000026  -0.011959   0.001013
   27  O  2 ZZ    0.000278  -0.000115   0.000503   0.001277  -0.002496
   28  O  2 XY    0.000657   0.000044  -0.000576   0.026332  -0.009814
   29  O  2 XZ    0.000000   0.000000   0.000000   0.000000   0.000000
   30  O  2 YZ    0.000000   0.000000   0.000000   0.000000   0.000000
   31  O  3  S   -0.000067   0.995951  -0.000110  -0.054359  -0.197008
   32  O  3  S    0.000016   0.022031   0.000417   0.117011   0.434997
   33  O  3  X   -0.000075   0.001644   0.000090   0.044855   0.068401
   34  O  3  Y    0.000094  -0.000754   0.000019  -0.012352  -0.046775
   35  O  3  Z    0.000000   0.000000   0.000000   0.000000   0.000000
   36  O  3  S   -0.000697  -0.010757  -0.001547   0.124954   0.448078
   37  O  3  X   -0.000606  -0.003504  -0.001544   0.032141   0.044548
   38  O  3  Y   -0.000555   0.001351   0.000151  -0.003872  -0.025568
   39  O  3  Z    0.000000   0.000000   0.000000   0.000000   0.000000
   40  O  3 XX   -0.000165  -0.000429  -0.000501   0.006676   0.005295
   41  O  3 YY    0.000249   0.000276   0.000130  -0.003766  -0.000692
   42  O  3 ZZ   -0.000083   0.000153   0.000371  -0.002910  -0.004603
   43  O  3 XY   -0.000049   0.000271   0.000353  -0.004186  -0.007957
   44  O  3 XZ    0.000000   0.000000   0.000000   0.000000   0.000000
   45  O  3 YZ    0.000000   0.000000   0.000000   0.000000   0.000000
   46  H  4  S   -0.000247  -0.000076  -0.000333   0.034436   0.012519
   47  H  4  S    0.000629   0.001116   0.003235  -0.017633  -0.005071

                      6          7          8          9         10
                   -0.8603    -0.7393    -0.6774    -0.6131    -0.4562
                     A          A          A          A          A   
    1  C  1  S    0.136144  -0.010558   0.000000  -0.051044   0.000000
    2  C  1  S   -0.308485   0.009564   0.000000   0.128710   0.000000
    3  C  1  X   -0.083573  -0.170192   0.000000  -0.335784   0.000000
    4  C  1  Y    0.181454  -0.367148   0.000000   0.206174   0.000000
    5  C  1  Z    0.000000   0.000000   0.280390   0.000000   0.151721
    6  C  1  S   -0.234799   0.130682   0.000000   0.086221   0.000000
    7  C  1  X   -0.040132   0.018023   0.000000  -0.088569   0.000000
    8  C  1  Y    0.101595  -0.102004   0.000000   0.062329   0.000000
    9  C  1  Z    0.000000   0.000000   0.127589   0.000000   0.135469
   10  C  1 XX    0.002885  -0.015118   0.000000  -0.000003   0.000000
   11  C  1 YY   -0.017342   0.013953   0.000000  -0.000270   0.000000
   12  C  1 ZZ    0.014458   0.001165   0.000000   0.000274   0.000000
   13  C  1 XY    0.002985  -0.025241   0.000000  -0.012557   0.000000
   14  C  1 XZ    0.000000   0.000000   0.025046   0.000000  -0.044366
   15  C  1 YZ    0.000000   0.000000   0.020559   0.000000   0.005815
   16  O  2  S   -0.096430  -0.052436   0.000000  -0.002602   0.000000
   17  O  2  S    0.226134   0.125812   0.000000   0.003901   0.000000
   18  O  2  X    0.228918   0.390049   0.000000   0.042994   0.000000
   19  O  2  Y    0.185528   0.177531   0.000000   0.140889   0.000000
   20  O  2  Z    0.000000   0.000000   0.535076   0.000000  -0.289446
   21  O  2  S    0.328101   0.195614   0.000000   0.039667   0.000000
   22  O  2  X    0.125436   0.219793   0.000000   0.015908   0.000000
   23  O  2  Y    0.083779   0.104252   0.000000   0.086197   0.000000
   24  O  2  Z    0.000000   0.000000   0.355617   0.000000  -0.252044
   25  O  2 XX   -0.003474  -0.016944   0.000000   0.009733   0.000000
   26  O  2 YY   -0.009800   0.004291   0.000000  -0.012764   0.000000
   27  O  2 ZZ    0.013274   0.012653   0.000000   0.003031   0.000000
   28  O  2 XY   -0.007263  -0.008201   0.000000  -0.009423   0.000000
   29  O  2 XZ    0.000000   0.000000  -0.030768   0.000000   0.007804
   30  O  2 YZ    0.000000   0.000000  -0.022235   0.000000   0.008270
   31  O  3  S   -0.058689   0.006051   0.000000   0.083276   0.000000
   32  O  3  S    0.138576  -0.014746   0.000000  -0.197158   0.000000
   33  O  3  X   -0.058622  -0.045529   0.000000   0.397075   0.000000
   34  O  3  Y    0.076468  -0.135477   0.000000  -0.190712   0.000000
   35  O  3  Z    0.000000   0.000000   0.148254   0.000000   0.533419
   36  O  3  S    0.156816  -0.013615   0.000000  -0.342063   0.000000
   37  O  3  X   -0.037992  -0.028499   0.000000   0.243050   0.000000
   38  O  3  Y    0.035588  -0.076917   0.000000  -0.113018   0.000000
   39  O  3  Z    0.000000   0.000000   0.089987   0.000000   0.416269
   40  O  3 XX   -0.002583  -0.008613   0.000000   0.023176   0.000000
   41  O  3 YY    0.000166   0.008364   0.000000  -0.008409   0.000000
   42  O  3 ZZ    0.002417   0.000249   0.000000  -0.014767   0.000000
   43  O  3 XY    0.007397  -0.007142   0.000000  -0.018477   0.000000
   44  O  3 XZ    0.000000   0.000000   0.012759   0.000000   0.030177
   45  O  3 YZ    0.000000   0.000000  -0.005794   0.000000  -0.015843
   46  H  4  S   -0.196461   0.186090   0.000000  -0.069975   0.000000
   47  H  4  S   -0.060663   0.107287   0.000000  -0.062557   0.000000

                     11         12         13         14         15
                   -0.4554     0.0127     0.1422     0.2520     0.4081
                     A          A          A          A          A   
    1  C  1  S   -0.012914   0.000928   0.000000   0.107885  -0.029145
    2  C  1  S    0.022131   0.001356   0.000000  -0.134911  -0.092722
    3  C  1  X   -0.015123   0.005472   0.000000  -0.005691   0.141628
    4  C  1  Y   -0.077057  -0.003382   0.000000   0.307873   0.087189
    5  C  1  Z    0.000000   0.000000   0.490792   0.000000   0.000000
    6  C  1  S    0.128356  -0.028566   0.000000  -1.822155   1.524978
    7  C  1  X    0.093025  -0.263618   0.000000   0.076445   2.145427
    8  C  1  Y    0.073363   0.177177   0.000000   0.890566   0.763360
    9  C  1  Z    0.000000   0.000000   0.723224   0.000000   0.000000
   10  C  1 XX   -0.037267  -0.038552   0.000000   0.010145   0.009996
   11  C  1 YY    0.038161   0.039018   0.000000  -0.002579  -0.007779
   12  C  1 ZZ   -0.000893  -0.000466   0.000000  -0.007565  -0.002217
   13  C  1 XY   -0.030023   0.026059   0.000000   0.003788   0.006582
   14  C  1 XZ    0.000000   0.000000   0.013008   0.000000   0.000000
   15  C  1 YZ    0.000000   0.000000  -0.026172   0.000000   0.000000
   16  O  2  S    0.014528  -0.004413   0.000000  -0.010058   0.093502
   17  O  2  S   -0.027633   0.006966   0.000000   0.024317  -0.113383
   18  O  2  X    0.106725  -0.267638   0.000000  -0.030002   0.025134
   19  O  2  Y    0.088537   0.412206   0.000000  -0.096000   0.152150
   20  O  2  Z    0.000000   0.000000  -0.280830   0.000000   0.000000
   21  O  2  S   -0.142169   0.075876   0.000000   0.071552  -2.105239
   22  O  2  X    0.094236  -0.284800   0.000000   0.013624   0.670246
   23  O  2  Y    0.088052   0.415002   0.000000  -0.248868   0.637958
   24  O  2  Z    0.000000   0.000000  -0.387771   0.000000   0.000000
   25  O  2 XX   -0.003002   0.018147   0.000000   0.001935  -0.029739
   26  O  2 YY    0.003584  -0.020418   0.000000   0.003361   0.003470
   27  O  2 ZZ   -0.000581   0.002272   0.000000  -0.005296   0.026269
   28  O  2 XY   -0.006427  -0.007100   0.000000  -0.003558  -0.045105
   29  O  2 XZ    0.000000   0.000000  -0.011186   0.000000   0.000000
   30  O  2 YZ    0.000000   0.000000  -0.010223   0.000000   0.000000
   31  O  3  S    0.004299   0.019893   0.000000  -0.021246  -0.020998
   32  O  3  S   -0.013385  -0.024305   0.000000   0.034922  -0.002121
   33  O  3  X    0.248617  -0.198182   0.000000   0.092055  -0.057412
   34  O  3  Y    0.558420  -0.002945   0.000000  -0.102498  -0.163526
   35  O  3  Z    0.000000   0.000000  -0.310406   0.000000   0.000000
   36  O  3  S   -0.013276  -0.253709   0.000000   0.229893   0.612043
   37  O  3  X    0.186133  -0.251423   0.000000   0.141962   0.012030
   38  O  3  Y    0.417904   0.042392   0.000000  -0.263953  -0.443618
   39  O  3  Z    0.000000   0.000000  -0.410577   0.000000   0.000000
   40  O  3 XX    0.016984  -0.007949   0.000000   0.006314  -0.004439
   41  O  3 YY   -0.017015   0.005484   0.000000   0.001333  -0.000790
   42  O  3 ZZ    0.000031   0.002465   0.000000  -0.007648   0.005230
   43  O  3 XY    0.016583   0.009666   0.000000  -0.006615  -0.010848
   44  O  3 XZ    0.000000   0.000000   0.002246   0.000000   0.000000
   45  O  3 YZ    0.000000   0.000000  -0.003694   0.000000   0.000000
   46  H  4  S    0.119637   0.122001   0.000000   0.015990  -0.053451
   47  H  4  S    0.167831   0.392371   0.000000   2.126919  -0.034000

                     16         17         18         19         20
                    0.4603     0.6970     0.7624     0.8582     0.9111
                     A          A          A          A          A   
    1  C  1  S   -0.071255   0.000000   0.056619  -0.044431   0.011872
    2  C  1  S   -0.179481   0.000000  -0.712953   0.701726   0.948746
    3  C  1  X   -0.118560   0.000000   0.630847   0.838602  -0.189827
    4  C  1  Y    0.239322   0.000000  -0.594654   0.470513  -0.438928
    5  C  1  Z    0.000000  -1.027336   0.000000   0.000000   0.000000
    6  C  1  S    2.068017   0.000000   0.893383  -0.461207  -1.764289
    7  C  1  X   -0.970565   0.000000  -0.783644  -0.659666  -0.202743
    8  C  1  Y    1.640990   0.000000   1.229106  -0.267840   2.002803
    9  C  1  Z    0.000000   1.236779   0.000000   0.000000   0.000000
   10  C  1 XX    0.007998   0.000000   0.122718  -0.073781  -0.006007
   11  C  1 YY   -0.032527   0.000000  -0.048456   0.030455   0.087589
   12  C  1 ZZ    0.024529   0.000000  -0.074262   0.043326  -0.081581
   13  C  1 XY    0.017061   0.000000  -0.064349  -0.143648  -0.006792
   14  C  1 XZ    0.000000  -0.006456   0.000000   0.000000   0.000000
   15  C  1 YZ    0.000000  -0.031649   0.000000   0.000000   0.000000
   16  O  2  S    0.046649   0.000000   0.006197   0.051103  -0.003546
   17  O  2  S   -0.085047   0.000000  -0.003630  -0.206590   0.036123
   18  O  2  X    0.134386   0.000000  -0.059165   0.308237   0.153852
   19  O  2  Y   -0.129298   0.000000  -0.115436   0.129608  -0.249660
   20  O  2  Z    0.000000  -0.068725   0.000000   0.000000   0.000000
   21  O  2  S   -0.785813   0.000000  -0.292162   0.244247  -0.097619
   22  O  2  X    0.713174   0.000000   0.233738   0.327788   0.070241
   23  O  2  Y   -0.260455   0.000000  -0.011920   0.194288  -0.281185
   24  O  2  Z    0.000000  -0.108430   0.000000   0.000000   0.000000
   25  O  2 XX   -0.027353   0.000000  -0.086697   0.119261   0.015484
   26  O  2 YY   -0.004781   0.000000   0.062345  -0.006185   0.001968
   27  O  2 ZZ    0.032134   0.000000   0.024351  -0.113077  -0.017453
   28  O  2 XY   -0.017570   0.000000   0.003760   0.133604  -0.021287
   29  O  2 XZ    0.000000   0.075273   0.000000   0.000000   0.000000
   30  O  2 YZ    0.000000   0.039062   0.000000   0.000000   0.000000
   31  O  3  S    0.097205   0.000000  -0.013825  -0.007334   0.019371
   32  O  3  S   -0.127980   0.000000   0.138276   0.047989  -0.045845
   33  O  3  X   -0.192304   0.000000   0.324366   0.021172  -0.151925
   34  O  3  Y    0.070604   0.000000  -0.191967  -0.046439  -0.243932
   35  O  3  Z    0.000000  -0.044451   0.000000   0.000000   0.000000
   36  O  3  S   -1.719063   0.000000  -0.827296  -0.107905  -0.278726
   37  O  3  X   -1.002031   0.000000  -0.108967   0.068466  -0.232421
   38  O  3  Y    0.264667   0.000000  -0.047996  -0.001166  -0.029917
   39  O  3  Z    0.000000  -0.170743   0.000000   0.000000   0.000000
   40  O  3 XX   -0.042792   0.000000  -0.120780   0.035243   0.029367
   41  O  3 YY    0.009294   0.000000   0.043347  -0.048672  -0.003627
   42  O  3 ZZ    0.033498   0.000000   0.077433   0.013429  -0.025740
   43  O  3 XY    0.022272   0.000000   0.089611   0.054540  -0.008982
   44  O  3 XZ    0.000000  -0.054567   0.000000   0.000000   0.000000
   45  O  3 YZ    0.000000   0.022777   0.000000   0.000000   0.000000
   46  H  4  S   -0.198243   0.000000   0.000488   0.137425   0.616883
   47  H  4  S    0.820806   0.000000   0.480912  -0.044082   1.234809

                     21         22         23         24         25
                    1.0485     1.0607     1.1640     1.2174     1.2817
                     A          A          A          A          A   
    1  C  1  S    0.050990   0.044992   0.000000  -0.021638   0.000000
    2  C  1  S   -0.976049   0.567711   0.000000  -0.322793   0.000000
    3  C  1  X   -0.055649   0.073338   0.000000   0.136705   0.000000
    4  C  1  Y    0.617492   0.043132   0.000000  -0.078779   0.000000
    5  C  1  Z    0.000000   0.000000   0.099408   0.000000   0.068902
    6  C  1  S    2.204118   0.410629   0.000000  -0.419806   0.000000
    7  C  1  X    0.020944   0.269450   0.000000   0.134881   0.000000
    8  C  1  Y   -0.868166   0.296886   0.000000  -0.227675   0.000000
    9  C  1  Z    0.000000   0.000000  -0.482644   0.000000  -0.534747
   10  C  1 XX   -0.031432   0.145214   0.000000  -0.148798   0.000000
   11  C  1 YY    0.159787  -0.018108   0.000000   0.035500   0.000000
   12  C  1 ZZ   -0.128354  -0.127106   0.000000   0.113298   0.000000
   13  C  1 XY    0.008507   0.187404   0.000000   0.151263   0.000000
   14  C  1 XZ    0.000000   0.000000  -0.070356   0.000000  -0.012064
   15  C  1 YZ    0.000000   0.000000  -0.003738   0.000000   0.065579
   16  O  2  S   -0.002375   0.051217   0.000000   0.005424   0.000000
   17  O  2  S    0.028986  -0.217299   0.000000  -0.109718   0.000000
   18  O  2  X   -0.105793  -0.680286   0.000000   0.099672   0.000000
   19  O  2  Y   -0.155627  -0.383519   0.000000  -0.211902   0.000000
   20  O  2  Z    0.000000   0.000000  -0.924082   0.000000  -0.187188
   21  O  2  S   -0.252616  -0.519804   0.000000   0.224183   0.000000
   22  O  2  X    0.219794   1.278518   0.000000  -0.110568   0.000000
   23  O  2  Y    0.140537   0.751408   0.000000   0.125004   0.000000
   24  O  2  Z    0.000000   0.000000   1.229366   0.000000   0.353397
   25  O  2 XX    0.045786  -0.034626   0.000000   0.036885   0.000000
   26  O  2 YY   -0.075090   0.012908   0.000000  -0.038995   0.000000
   27  O  2 ZZ    0.029305   0.021718   0.000000   0.002110   0.000000
   28  O  2 XY   -0.083049  -0.035878   0.000000  -0.029518   0.000000
   29  O  2 XZ    0.000000   0.000000   0.038730   0.000000  -0.022497
   30  O  2 YZ    0.000000   0.000000   0.022983   0.000000   0.061527
   31  O  3  S    0.005861  -0.003366   0.000000  -0.056442   0.000000
   32  O  3  S   -0.009984   0.070460   0.000000   0.371073   0.000000
   33  O  3  X    0.055807   0.062078   0.000000  -0.754448   0.000000
   34  O  3  Y   -0.128468   0.101353   0.000000   0.289741   0.000000
   35  O  3  Z    0.000000   0.000000   0.194290   0.000000  -0.953459
   36  O  3  S   -0.235467  -0.107956   0.000000   0.105631   0.000000
   37  O  3  X   -0.148449  -0.092946   0.000000   1.212220   0.000000
   38  O  3  Y    0.218945  -0.024128   0.000000  -0.496159   0.000000
   39  O  3  Z    0.000000   0.000000  -0.124781   0.000000   1.171251
   40  O  3 XX    0.017574  -0.032797   0.000000   0.000862   0.000000
   41  O  3 YY   -0.039459   0.040824   0.000000   0.001150   0.000000
   42  O  3 ZZ    0.021885  -0.008027   0.000000  -0.002012   0.000000
   43  O  3 XY    0.065177  -0.045992   0.000000   0.014774   0.000000
   44  O  3 XZ    0.000000   0.000000   0.029655   0.000000  -0.015524
   45  O  3 YZ    0.000000   0.000000   0.019473   0.000000   0.031296
   46  H  4  S    0.922178  -0.051066   0.000000   0.039110   0.000000
   47  H  4  S   -1.857111   0.178730   0.000000  -0.090967   0.000000

                     26         27         28         29         30
                    1.3098     1.3432     1.6433     1.6940     1.7301
                     A          A          A          A          A   
    1  C  1  S    0.003458  -0.003600   0.000000   0.000000  -0.019460
    2  C  1  S    0.159333  -0.063002   0.000000   0.000000  -0.122481
    3  C  1  X    0.102502   0.097935   0.000000   0.000000  -0.087949
    4  C  1  Y   -0.298959   0.078676   0.000000   0.000000  -0.056865
    5  C  1  Z    0.000000   0.000000  -0.026232  -0.213339   0.000000
    6  C  1  S   -0.875834   0.356217   0.000000   0.000000  -1.963940
    7  C  1  X   -0.477072  -0.386796   0.000000   0.000000  -0.756600
    8  C  1  Y    1.487993  -0.659896   0.000000   0.000000  -1.637495
    9  C  1  Z    0.000000   0.000000  -0.050640   0.217330   0.000000
   10  C  1 XX   -0.180068   0.048183   0.000000   0.000000  -0.083774
   11  C  1 YY    0.192269  -0.061577   0.000000   0.000000   0.239235
   12  C  1 ZZ   -0.012201   0.013394   0.000000   0.000000  -0.155462
   13  C  1 XY    0.047890   0.098673   0.000000   0.000000  -0.190303
   14  C  1 XZ    0.000000   0.000000   0.610452   0.084801   0.000000
   15  C  1 YZ    0.000000   0.000000  -0.140175   0.705103   0.000000
   16  O  2  S    0.002788  -0.006114   0.000000   0.000000   0.025529
   17  O  2  S   -0.088592   0.129825   0.000000   0.000000  -1.389550
   18  O  2  X   -0.424619  -0.188651   0.000000   0.000000   0.083421
   19  O  2  Y    0.721927   0.300046   0.000000   0.000000  -0.010172
   20  O  2  Z    0.000000   0.000000  -0.147987  -0.066358   0.000000
   21  O  2  S    0.111979   0.063276   0.000000   0.000000   3.338562
   22  O  2  X    0.593939   0.290711   0.000000   0.000000  -1.066389
   23  O  2  Y   -1.194975  -0.229922   0.000000   0.000000  -0.367099
   24  O  2  Z    0.000000   0.000000   0.003172  -0.136895   0.000000
   25  O  2 XX    0.091808   0.073059   0.000000   0.000000  -0.005022
   26  O  2 YY   -0.083838  -0.027614   0.000000   0.000000   0.224690
   27  O  2 ZZ   -0.007970  -0.045445   0.000000   0.000000  -0.219668
   28  O  2 XY   -0.060607  -0.018238   0.000000   0.000000  -0.235132
   29  O  2 XZ    0.000000   0.000000  -0.179661  -0.471503   0.000000
   30  O  2 YZ    0.000000   0.000000  -0.362699   0.073355   0.000000
   31  O  3  S    0.001503  -0.000358   0.000000   0.000000   0.016468
   32  O  3  S   -0.078465  -0.014221   0.000000   0.000000  -0.497583
   33  O  3  X    0.024849  -0.355137   0.000000   0.000000  -0.141263
   34  O  3  Y    0.267062  -0.761905   0.000000   0.000000  -0.098237
   35  O  3  Z    0.000000   0.000000   0.029179   0.065397   0.000000
   36  O  3  S   -0.202781  -0.043744   0.000000   0.000000   1.049040
   37  O  3  X   -0.027341   0.545243   0.000000   0.000000   0.550151
   38  O  3  Y   -0.558491   1.104768   0.000000   0.000000   0.245486
   39  O  3  Z    0.000000   0.000000   0.189251  -0.186142   0.000000
   40  O  3 XX   -0.013790  -0.100607   0.000000   0.000000   0.080539
   41  O  3 YY   -0.021461   0.079914   0.000000   0.000000   0.123419
   42  O  3 ZZ    0.035250   0.020694   0.000000   0.000000  -0.203958
   43  O  3 XY    0.034754  -0.073769   0.000000   0.000000   0.134219
   44  O  3 XZ    0.000000   0.000000  -0.338678   0.220943   0.000000
   45  O  3 YZ    0.000000   0.000000   0.219879   0.133852   0.000000
   46  H  4  S    0.207115  -0.172354   0.000000   0.000000  -0.253492
   47  H  4  S    0.842739  -0.315264   0.000000   0.000000  -0.457797

                     31         32         33         34         35
                    1.8119     1.9847     2.0412     2.0711     2.1484
                     A          A          A          A          A   
    1  C  1  S   -0.002077  -0.016869  -0.003864   0.000000   0.000000
    2  C  1  S   -0.038811  -0.210615   0.038720   0.000000   0.000000
    3  C  1  X    0.098028  -0.015428   0.119080   0.000000   0.000000
    4  C  1  Y    0.011432  -0.102833  -0.139454   0.000000   0.000000
    5  C  1  Z    0.000000   0.000000   0.000000   0.092950   0.131071
    6  C  1  S   -0.051381   2.254013   0.146951   0.000000   0.000000
    7  C  1  X    1.716081  -0.305190   0.676627   0.000000   0.000000
    8  C  1  Y   -0.416631   0.699882  -0.509405   0.000000   0.000000
    9  C  1  Z    0.000000   0.000000   0.000000   0.035314   0.079437
   10  C  1 XX    0.013510   0.065654  -0.212260   0.000000   0.000000
   11  C  1 YY    0.120707   0.279918   0.272394   0.000000   0.000000
   12  C  1 ZZ   -0.134218  -0.345573  -0.060134   0.000000   0.000000
   13  C  1 XY    0.210558  -0.128665   0.303974   0.000000   0.000000
   14  C  1 XZ    0.000000   0.000000   0.000000   0.053210   0.044468
   15  C  1 YZ    0.000000   0.000000   0.000000  -0.206500  -0.132761
   16  O  2  S   -0.015623  -0.013737   0.006989   0.000000   0.000000
   17  O  2  S    0.745962   0.609590   0.072649   0.000000   0.000000
   18  O  2  X    0.052200  -0.082674   0.178235   0.000000   0.000000
   19  O  2  Y   -0.127263  -0.035779  -0.126854   0.000000   0.000000
   20  O  2  Z    0.000000   0.000000   0.000000   0.003766   0.077235
   21  O  2  S   -1.761274  -1.439986  -0.422086   0.000000   0.000000
   22  O  2  X    0.271690   0.551758  -0.097949   0.000000   0.000000
   23  O  2  Y    0.641231   0.139918   0.360892   0.000000   0.000000
   24  O  2  Z    0.000000   0.000000   0.000000  -0.004744  -0.133879
   25  O  2 XX    0.151953   0.292921   0.308230   0.000000   0.000000
   26  O  2 YY    0.224250   0.236420  -0.580712   0.000000   0.000000
   27  O  2 ZZ   -0.376203  -0.529341   0.272482   0.000000   0.000000
   28  O  2 XY   -0.033857  -0.271743  -0.007065   0.000000   0.000000
   29  O  2 XZ    0.000000   0.000000   0.000000  -0.413773   0.187888
   30  O  2 YZ    0.000000   0.000000   0.000000   0.780596   0.296058
   31  O  3  S    0.038357  -0.014865  -0.021554   0.000000   0.000000
   32  O  3  S   -1.290001   0.879548  -0.013022   0.000000   0.000000
   33  O  3  X   -0.162044   0.066882   0.245213   0.000000   0.000000
   34  O  3  Y    0.164466  -0.043996  -0.120015   0.000000   0.000000
   35  O  3  Z    0.000000   0.000000   0.000000   0.079898   0.034362
   36  O  3  S    2.563055  -1.995227   0.618980   0.000000   0.000000
   37  O  3  X    0.803608  -0.751473   0.055543   0.000000   0.000000
   38  O  3  Y   -0.585382   0.266124  -0.000989   0.000000   0.000000
   39  O  3  Z    0.000000   0.000000   0.000000  -0.076442  -0.050779
   40  O  3 XX   -0.128415   0.318126   0.057235   0.000000   0.000000
   41  O  3 YY    0.053184  -0.153436   0.414290   0.000000   0.000000
   42  O  3 ZZ    0.075231  -0.164690  -0.471525   0.000000   0.000000
   43  O  3 XY    0.135929   0.083587   0.280252   0.000000   0.000000
   44  O  3 XZ    0.000000   0.000000   0.000000  -0.424020   0.257373
   45  O  3 YZ    0.000000   0.000000   0.000000  -0.075367   0.897228
   46  H  4  S   -0.120470  -0.418003  -0.403770   0.000000   0.000000
   47  H  4  S   -0.276385   0.084993  -0.161147   0.000000   0.000000

                     36         37         38         39         40
                    2.1610     2.2460     2.4560     2.6570     2.7688
                     A          A          A          A          A   
    1  C  1  S   -0.026269   0.002370   0.047226   0.000000  -0.027055
    2  C  1  S   -0.167971  -0.085624   0.276185   0.000000   0.048951
    3  C  1  X    0.058770  -0.196373  -0.127714   0.000000  -0.286902
    4  C  1  Y    0.208984  -0.029257   0.042392   0.000000   0.138371
    5  C  1  Z    0.000000   0.000000   0.000000   0.277154   0.000000
    6  C  1  S    1.120249   0.178588  -0.752505   0.000000   0.147324
    7  C  1  X   -0.160195  -0.288642  -0.127809   0.000000  -0.203361
[...]
   17  O  2  S    0.016241  -0.001282   0.000000  -0.025321   0.136780
   18  O  2  X   -0.228635   0.223262   0.000000   0.068929  -0.102808
   19  O  2  Y   -0.103928  -0.435562   0.000000   0.092282  -0.157728
   20  O  2  Z    0.000000   0.000000   0.237090   0.000000   0.000000
   21  O  2  S    0.104870  -0.082446   0.000000  -0.196392   1.822671
   22  O  2  X   -0.190861   0.255451   0.000000   0.086669  -0.775340
   23  O  2  Y   -0.097888  -0.463204   0.000000   0.254324  -0.552250
   24  O  2  Z    0.000000   0.000000   0.320500   0.000000   0.000000
   25  O  2 XX    0.009517  -0.013738   0.000000  -0.002564   0.026697
   26  O  2 YY   -0.006478   0.016017   0.000000  -0.001932  -0.007262
   27  O  2 ZZ   -0.003038  -0.002278   0.000000   0.004497  -0.019435
   28  O  2 XY    0.008053   0.010648   0.000000   0.000442   0.032137
   29  O  2 XZ    0.000000   0.000000   0.011716   0.000000   0.000000
   30  O  2 YZ    0.000000   0.000000   0.010627   0.000000   0.000000
   31  O  3  S   -0.002194  -0.025420   0.000000   0.019736   0.017644
   32  O  3  S    0.008491   0.027138   0.000000  -0.037390   0.012209
   33  O  3  X   -0.241988   0.114303   0.000000  -0.052254   0.102560
   34  O  3  Y   -0.512927   0.007271   0.000000   0.096486   0.176028
   35  O  3  Z    0.000000   0.000000   0.349402   0.000000   0.000000
   36  O  3  S   -0.002389   0.410308   0.000000  -0.218063  -0.701548
   37  O  3  X   -0.178990   0.193614   0.000000  -0.081012   0.100360
   38  O  3  Y   -0.379524  -0.048449   0.000000   0.277658   0.523679
   39  O  3  Z    0.000000   0.000000   0.511793   0.000000   0.000000
   40  O  3 XX   -0.015796   0.006975   0.000000  -0.008712   0.000654
   41  O  3 YY    0.016378  -0.006168   0.000000  -0.001365   0.006526
   42  O  3 ZZ   -0.000582  -0.000807   0.000000   0.010077  -0.007181
   43  O  3 XY   -0.015987  -0.007843   0.000000   0.006019   0.011750
   44  O  3 XZ    0.000000   0.000000  -0.001586   0.000000   0.000000
   45  O  3 YZ    0.000000   0.000000   0.003318   0.000000   0.000000
   46  H  4  S   -0.166562  -0.098332   0.000000  -0.011087   0.042898
   47  H  4  S   -0.203893  -0.369850   0.000000  -2.196316  -0.142255

                     16         17         18         19         20
                    0.4520     0.6996     0.7457     0.9038     0.9682
                     A          A          A          A          A   
    1  C  1  S   -0.048633   0.000000   0.055027   0.040529   0.033597
    2  C  1  S   -0.172538   0.000000  -0.710504   0.555809  -1.087655
    3  C  1  X   -0.014279   0.000000  -0.644455   0.463568   0.727783
    4  C  1  Y    0.206139   0.000000  -0.622807  -0.599799  -0.167432
    5  C  1  Z    0.000000   1.025099   0.000000   0.000000   0.000000
    6  C  1  S    2.342137   0.000000   1.037094  -1.572217   0.987575
    7  C  1  X   -1.388071   0.000000   0.602588  -0.829290  -0.150576
    8  C  1  Y    1.632911   0.000000   0.990099   2.034318  -0.574242
    9  C  1  Z    0.000000  -1.236151   0.000000   0.000000   0.000000
   10  C  1 XX    0.021153   0.000000   0.103828   0.064226   0.106301
   11  C  1 YY   -0.033556   0.000000  -0.040736   0.042291  -0.088591
   12  C  1 ZZ    0.012403   0.000000  -0.063092  -0.106517  -0.017710
   13  C  1 XY   -0.010006   0.000000   0.065528  -0.090833  -0.105585
   14  C  1 XZ    0.000000   0.010740   0.000000   0.000000   0.000000
   15  C  1 YZ    0.000000   0.027413   0.000000   0.000000   0.000000
   16  O  2  S    0.041853   0.000000  -0.021831   0.002377   0.013042
   17  O  2  S   -0.092300   0.000000   0.141757  -0.002836  -0.088042
   18  O  2  X    0.157122   0.000000  -0.336324   0.167652  -0.088679
   19  O  2  Y   -0.120995   0.000000  -0.178877  -0.194135   0.080385
   20  O  2  Z    0.000000   0.069620   0.000000   0.000000   0.000000
   21  O  2  S   -0.469173   0.000000  -0.680670   0.112899  -0.000185
   22  O  2  X    0.605979   0.000000   0.089726   0.087905   0.095852
   23  O  2  Y   -0.298294   0.000000  -0.047456  -0.234971   0.199632
   24  O  2  Z    0.000000   0.141328   0.000000   0.000000   0.000000
   25  O  2 XX   -0.028761   0.000000  -0.130533   0.010407  -0.059900
   26  O  2 YY    0.005344   0.000000   0.035428   0.033914   0.057168
   27  O  2 ZZ    0.023417   0.000000   0.095105  -0.044321   0.002731
   28  O  2 XY   -0.008481   0.000000  -0.096694   0.031816   0.045719
   29  O  2 XZ    0.000000  -0.059067   0.000000   0.000000   0.000000
   30  O  2 YZ    0.000000  -0.025947   0.000000   0.000000   0.000000
   31  O  3  S    0.099588   0.000000   0.006430  -0.011489  -0.061680
   32  O  3  S   -0.094461   0.000000   0.014698   0.072197   0.231741
   33  O  3  X   -0.087447   0.000000   0.079468   0.042002   0.250902
   34  O  3  Y    0.012581   0.000000  -0.045891  -0.301398   0.053809
   35  O  3  Z    0.000000   0.033642   0.000000   0.000000   0.000000
   36  O  3  S   -2.333024   0.000000  -0.337556  -0.501571   0.135361
   37  O  3  X   -0.978649   0.000000  -0.227259   0.034449   0.567766
   38  O  3  Y    0.256054   0.000000   0.014877  -0.182627  -0.284182
   39  O  3  Z    0.000000   0.130301   0.000000   0.000000   0.000000
   40  O  3 XX   -0.051552   0.000000  -0.079320  -0.060577  -0.114627
   41  O  3 YY    0.007162   0.000000   0.058515   0.029887   0.023371
   42  O  3 ZZ    0.044390   0.000000   0.020805   0.030690   0.091256
   43  O  3 XY    0.040784   0.000000  -0.023470   0.067035   0.106365
   44  O  3 XZ    0.000000   0.076879   0.000000   0.000000   0.000000
   45  O  3 YZ    0.000000  -0.034014   0.000000   0.000000   0.000000
   46  H  4  S   -0.192533   0.000000  -0.051543   0.495329  -0.343093
   47  H  4  S    0.764525   0.000000   0.241921   1.316120  -0.404723

                     21         22
                    1.0641     1.1156
                     A          A   
    1  C  1  S    0.060981  -0.047060
    2  C  1  S   -0.918337  -0.593156
    3  C  1  X   -0.087059  -0.085277
    4  C  1  Y    0.599124  -0.130033
    5  C  1  Z    0.000000   0.000000
    6  C  1  S    2.229101  -0.676147
    7  C  1  X    0.007959   0.045523
    8  C  1  Y   -0.768393  -0.238162
    9  C  1  Z    0.000000   0.000000
   10  C  1 XX    0.003473  -0.198446
   11  C  1 YY    0.140535   0.034986
   12  C  1 ZZ   -0.144008   0.163460
   13  C  1 XY   -0.085602  -0.049186
   14  C  1 XZ    0.000000   0.000000
   15  C  1 YZ    0.000000   0.000000
   16  O  2  S   -0.007864  -0.050456
   17  O  2  S    0.060640   0.272050
   18  O  2  X   -0.000413   0.667462
   19  O  2  Y   -0.107677   0.284242
   20  O  2  Z    0.000000   0.000000
   21  O  2  S   -0.225708   0.197110
   22  O  2  X    0.028850  -1.145905
   23  O  2  Y    0.093731  -0.563216
   24  O  2  Z    0.000000   0.000000
   25  O  2 XX    0.011477   0.012705
   26  O  2 YY   -0.039603  -0.025282
   27  O  2 ZZ    0.028125   0.012577
   28  O  2 XY   -0.066455  -0.026362
   29  O  2 XZ    0.000000   0.000000
   30  O  2 YZ    0.000000   0.000000
   31  O  3  S    0.007227  -0.018681
   32  O  3  S    0.008235   0.001780
   33  O  3  X    0.190160  -0.341344
   34  O  3  Y   -0.179595   0.025345
   35  O  3  Z    0.000000   0.000000
   36  O  3  S   -0.438243   0.489486
   37  O  3  X   -0.416220   0.675051
   38  O  3  Y    0.240858  -0.263245
   39  O  3  Z    0.000000   0.000000
   40  O  3 XX    0.018394   0.042578
   41  O  3 YY   -0.052152  -0.025439
   42  O  3 ZZ    0.033758  -0.017140
   43  O  3 XY    0.100115  -0.003342
   44  O  3 XZ    0.000000   0.000000
   45  O  3 YZ    0.000000   0.000000
   46  H  4  S    0.913617   0.016064
   47  H  4  S   -1.788956  -0.077225

     ----------------------------------------------------------------
     PROPERTY VALUES FOR THE UHF   SELF-CONSISTENT FIELD WAVEFUNCTION
     ----------------------------------------------------------------

          -----------------
          ENERGY COMPONENTS
          -----------------

         WAVEFUNCTION NORMALIZATION =       1.0000000000

                ONE ELECTRON ENERGY =    -383.0227317671
                TWO ELECTRON ENERGY =     131.6852738418
           NUCLEAR REPULSION ENERGY =      63.2083851407
                                      ------------------
                       TOTAL ENERGY =    -188.1290727846

 ELECTRON-ELECTRON POTENTIAL ENERGY =     131.6852738418
  NUCLEUS-ELECTRON POTENTIAL ENERGY =    -570.9666154203
   NUCLEUS-NUCLEUS POTENTIAL ENERGY =      63.2083851407
                                      ------------------
             TOTAL POTENTIAL ENERGY =    -376.0729564378
               TOTAL KINETIC ENERGY =     187.9438836532
                 VIRIAL RATIO (V/T) =       2.0009853427

  ...... PI ENERGY ANALYSIS ......

 ENERGY ANALYSIS:
            FOCK ENERGY=   -119.6521715114
          BARE H ENERGY=   -383.0227317671
     ELECTRONIC ENERGY =   -251.3374516393
         KINETIC ENERGY=    187.9438836532
          N-N REPULSION=     63.2083851407
           TOTAL ENERGY=   -188.1290664986
        SIGMA PART(1+2)=   -228.8495283231
               (K,V1,2)=    179.6331498659   -520.0331001595    111.5504219706
           PI PART(1+2)=    -22.4879233162
               (K,V1,2)=      8.3107337873    -50.9335152607     20.1348581572
  SIGMA SKELETON, ERROR=   -165.6411431824      0.0000000000
             MIXED PART= 0.00000E+00 0.00000E+00 0.00000E+00 0.00000E+00
 ...... END OF PI ENERGY ANALYSIS ......

          ---------------------------------------
          MULLIKEN AND LOWDIN POPULATION ANALYSES
          ---------------------------------------

     ATOMIC MULLIKEN POPULATION IN EACH MOLECULAR ORBITAL
        ALPHA ORBITALS

                      1          2          3          4          5

                  1.000000   1.000000   1.000000   1.000000   1.000000

    1             0.000652   0.000679   1.000769   0.149314   0.185321
    2             0.999347  -0.000007  -0.000486   0.669515   0.239043
    3            -0.000008   0.999313  -0.000600   0.183001   0.576168
    4             0.000009   0.000014   0.000317  -0.001830  -0.000532

                      6          7          8          9         10

                  1.000000   1.000000   1.000000   1.000000   1.000000

    1             0.415866   0.165320   0.183784   0.212636   0.158431
    2             0.333372   0.625712   0.365573   0.660748   0.393741
    3             0.087208   0.179653   0.423949   0.126616   0.353983
    4             0.163553   0.029314   0.026694   0.000000   0.093844

                     11         12

                  1.000000   1.000000

    1             0.138661   0.074839
    2             0.279213   0.087375
    3             0.582126   0.727909
    4             0.000000   0.109878

     ATOMIC MULLIKEN POPULATION IN EACH MOLECULAR ORBITAL
         BETA ORBITALS

                      1          2          3          4          5

                  1.000000   1.000000   1.000000   1.000000   1.000000

    1             0.000537   0.000683   1.000783   0.249203   0.158737
    2             0.999462  -0.000007  -0.000489   0.169926   0.655914
    3            -0.000006   0.999309  -0.000611   0.583072   0.184440
    4             0.000008   0.000014   0.000317  -0.002201   0.000909

                      6          7          8          9         10

                  1.000000   1.000000   1.000000   1.000000   1.000000

    1             0.431397   0.282860   0.188190   0.285715   0.063837
    2             0.247770   0.408289   0.113503   0.476070   0.440293
    3             0.144949   0.223203   0.681510   0.238215   0.495870
    4             0.175884   0.085648   0.016797   0.000000   0.000000

                     11

                  1.000000

    1             0.076519
    2             0.108166
    3             0.704270
    4             0.111045

          MULLIKEN SPHERICAL HARMONIC POPULATIONS
       ATOM           S       P       D      F      G      H      I    TOTAL
    1 C             1.50    1.11    0.08   0.00   0.00   0.00   0.00    2.69
    2 O             1.98    2.66    0.01   0.00   0.00   0.00   0.00    4.65
    3 O             1.93    2.29    0.02   0.00   0.00   0.00   0.00    4.24
    4 H             0.42    0.00    0.00   0.00   0.00   0.00   0.00    0.42

          MULLIKEN SPHERICAL HARMONIC POPULATIONS
       ATOM           S       P       D      F      G      H      I    TOTAL
    1 C             1.51    1.16    0.07   0.00   0.00   0.00   0.00    2.74
    2 O             1.96    1.65    0.01   0.00   0.00   0.00   0.00    3.62
    3 O             1.93    2.30    0.02   0.00   0.00   0.00   0.00    4.25
    4 H             0.39    0.00    0.00   0.00   0.00   0.00   0.00    0.39

     ATOMIC SPIN POPULATION (ALPHA MINUS BETA)
       ATOM         MULL.POP.                    LOW.POP.
    1 C            -0.052186                    -0.011468
    2 O             1.034251                     0.996625
    3 O            -0.014906                    -0.011570
    4 H             0.032840                     0.026414


          ********* ALL ELECTRONS ********

               ----- POPULATIONS IN EACH AO -----
                             MULLIKEN      LOWDIN
              1  C  1  S      1.99752     1.97180
              2  C  1  S      0.70167     0.35428
              3  C  1  X      0.69170     0.60661
              4  C  1  Y      0.73776     0.64773
              5  C  1  Z      0.42559     0.37786
              6  C  1  S      0.30610     0.28577
              7  C  1  X      0.00623     0.23833
              8  C  1  Y      0.17489     0.34116
              9  C  1  Z      0.23604     0.31024
             10  C  1 XX      0.00878     0.24234
             11  C  1 YY      0.05303     0.19957
             12  C  1 ZZ      0.04620     0.08715
             13  C  1 XY      0.03368     0.09041
             14  C  1 XZ      0.00554     0.06681
             15  C  1 YZ      0.00000     0.00904
             16  O  2  S      1.99812     1.97921
             17  O  2  S      0.95798     0.76244
             18  O  2  X      0.89723     0.84241
             19  O  2  Y      0.71101     0.68055
             20  O  2  Z      1.12432     1.08652
             21  O  2  S      0.98551     0.48955
             22  O  2  X      0.48638     0.51595
             23  O  2  Y      0.36218     0.39740
             24  O  2  Z      0.72594     0.72971
             25  O  2 XX      0.00299     0.18856
             26  O  2 YY      0.00612     0.17795
             27  O  2 ZZ      0.00822     0.17957
             28  O  2 XY      0.00459     0.01267
             29  O  2 XZ      0.00147     0.00616
             30  O  2 YZ      0.00000     0.00164
             31  O  3  S      1.99791     1.97820
             32  O  3  S      0.90940     0.70770
             33  O  3  X      0.94909     0.88870
             34  O  3  Y      1.08149     1.03633
             35  O  3  Z      0.81809     0.77237
             36  O  3  S      0.95355     0.46473
             37  O  3  X      0.49951     0.56060
             38  O  3  Y      0.63931     0.67518
             39  O  3  Z      0.60955     0.62279
             40  O  3 XX      0.00265     0.18866
             41  O  3 YY      0.00918     0.17394
             42  O  3 ZZ      0.00863     0.16821
             43  O  3 XY      0.01196     0.01724
             44  O  3 XZ      0.00323     0.01338
             45  O  3 YZ      0.00000     0.00347
             46  H  4  S      0.53218     0.49364
             47  H  4  S      0.27750     0.35545

          ----- MULLIKEN ATOMIC OVERLAP POPULATIONS -----
          (OFF-DIAGONAL ELEMENTS NEED TO BE MULTIPLIED BY 2)

             1           2           3           4

    1    4.2020873
    2    0.2066924   8.1991303
    3    0.6180356  -0.0598946   7.9850612
    4    0.3979174  -0.0738833  -0.0496596   0.5353055

          TOTAL MULLIKEN AND LOWDIN ATOMIC POPULATIONS
       ATOM         MULL.POP.    CHARGE          LOW.POP.     CHARGE
    1 C             5.424733    0.575267         5.829109    0.170891
    2 O             8.272045   -0.272045         8.050287   -0.050287
    3 O             8.493543   -0.493543         8.271513   -0.271513
    4 H             0.809680    0.190320         0.849090    0.150910

          MULLIKEN SPHERICAL HARMONIC POPULATIONS
       ATOM           S       P       D      F      G      H      I    TOTAL
    1 C             3.01    2.27    0.15   0.00   0.00   0.00   0.00    5.42
    2 O             3.94    4.31    0.02   0.00   0.00   0.00   0.00    8.27
    3 O             3.86    4.60    0.04   0.00   0.00   0.00   0.00    8.49
    4 H             0.81    0.00    0.00   0.00   0.00   0.00   0.00    0.81

          -------------------------------
          BOND ORDER AND VALENCE ANALYSIS     BOND ORDER THRESHOLD=0.050
          -------------------------------

                   BOND                       BOND                       BOND
  ATOM PAIR DIST  ORDER      ATOM PAIR DIST  ORDER      ATOM PAIR DIST  ORDER
    1   2  1.324  0.958        1   3  1.177  1.921        1   4  1.089  0.905
    2   3  2.216  0.052

                       TOTAL       BONDED        FREE
      ATOM            VALENCE     VALENCE     VALENCE
    1 C                 3.787       3.784       0.004
    2 O                 1.951       1.008       0.943
    3 O                 1.992       1.991       0.001
    4 H                 0.921       0.920       0.001

          -----------------------------------------
          ATOMIC SPIN DENSITY AT THE NUCLEUS (A.U.)
          -----------------------------------------
                            SPIN DENS    ALPHA DENS     BETA DENS
    1  C            6.0    -0.0415246      59.12396      59.16548
    2  O            8.0     0.2621504     146.04320     145.78105
    3  O            8.0     0.0028914     145.68649     145.68360
    4  H            1.0     0.0174532       0.22222       0.20477

          ---------------------
          ELECTROSTATIC MOMENTS
          ---------------------

 POINT   1           X           Y           Z (BOHR)    CHARGE
                 0.000000    0.000000    0.000000        0.00 (A.U.)
         DX          DY          DZ         /D/  (DEBYE)
     1.455459   -2.020868    0.000000    2.490435
 ...... END OF PROPERTY EVALUATION ......
 CPU     0: STEP CPU TIME=     0.00 TOTAL CPU TIME=        1.9 (    0.0 MIN)
 TOTAL WALL CLOCK TIME=        2.1 SECONDS, CPU UTILIZATION IS  90.82%
  $VIB   
          IVIB=   0 IATOM=   0 ICOORD=   0 E=     -188.1290727846
 -4.842251426E-06-3.583155046E-05 0.000000000E+00 7.474709366E-06 2.080929023E-05
  0.000000000E+00 5.681775762E-06 8.352106907E-06 0.000000000E+00-8.314233702E-06
  6.670153318E-06 0.000000000E+00
  1.455458932E+00-2.020867548E+00 0.000000000E+00
 ......END OF GEOMETRY SEARCH......
 CPU     0: STEP CPU TIME=     0.00 TOTAL CPU TIME=        1.9 (    0.0 MIN)
 TOTAL WALL CLOCK TIME=        2.1 SECONDS, CPU UTILIZATION IS  90.82%
               1056978  WORDS OF DYNAMIC MEMORY USED
 EXECUTION OF GAMESS TERMINATED NORMALLY Tue May 15 22:13:53 2012
 DDI: 263624 bytes (0.3 MB / 0 MWords) used by master data server.

 ----------------------------------------
 CPU timing information for all processes
 ========================================
 0: 1.757 + 0.135 = 1.892
 1: 1.733 + 0.85 = 1.818
 2: 1.718 + 0.92 = 1.811
 3: 1.748 + 0.78 = 1.826
 4: 0.18 + 0.224 = 0.242
 5: 0.00 + 0.01 = 0.02
 6: 0.00 + 0.01 = 0.02
 7: 0.00 + 0.01 = 0.02
 ----------------------------------------
 ddikick.x: exited gracefully.
----- accounting info -----
Files used on the master node Macs-iMac.local were:
-rw-r--r--@ 1 mac  staff      471 May 15 22:13 /Users/mac/Desktop/gamess/scr/fast.F05
-rw-r--r--  1 mac  staff  1832320 May 15 22:13 /Users/mac/Desktop/gamess/scr/fast.F10
-rw-r--r--  1 mac  staff   246567 May 15 22:13 /Users/mac/Desktop/gamess/scr/fast.dat
Tue May 15 22:13:56 CDT 2012
1.828u 0.394s 0:05.17 42.7%	0+0k 0+5io 0pf+0w
