----- GAMESS execution script -----
This job is running on host kenan
under operating system Linux at Thu Jun 2 13:27:58 CDT 2011
Available scratch disk space (Kbyte units) at beginning of the job is
Filesystem           1K-blocks      Used Available Use% Mounted on
/dev/mapper/kenan-root
                     460482632   7648764 429442636   2% /

 Distributed Data Interface kickoff program.
 Initiating 16 compute processes on 1 nodes to run the following command:
 /opt/gamess/gamess.00.x scan1 

          ******************************************************
          *         GAMESS VERSION =  1 OCT 2010 (R1)          *
          *             FROM IOWA STATE UNIVERSITY             *
          * M.W.SCHMIDT, K.K.BALDRIDGE, J.A.BOATZ, S.T.ELBERT, *
          *   M.S.GORDON, J.H.JENSEN, S.KOSEKI, N.MATSUNAGA,   *
          *          K.A.NGUYEN, S.J.SU, T.L.WINDUS,           *
          *       TOGETHER WITH M.DUPUIS, J.A.MONTGOMERY       *
          *         J.COMPUT.CHEM.  14, 1347-1363(1993)        *
          **************** 64 BIT LINUX VERSION ****************

  SINCE 1993, STUDENTS AND POSTDOCS WORKING AT IOWA STATE UNIVERSITY
  AND ALSO IN THEIR VARIOUS JOBS AFTER LEAVING ISU HAVE MADE IMPORTANT
  CONTRIBUTIONS TO THE CODE:
     IVANA ADAMOVIC, CHRISTINE AIKENS, YURI ALEXEEV, POOJA ARORA,
     ANDREY ASADCHEV, ROB BELL, PRADIPTA BANDYOPADHYAY, JONATHAN BENTZ,
     BRETT BODE, GALINA CHABAN, WEI CHEN, CHEOL HO CHOI, PAUL DAY, TIM DUDLEY,
     DMITRI FEDOROV, GRAHAM FLETCHER, MARK FREITAG, KURT GLAESEMANN, DAN KEMP,
     GRANT MERRILL, NORIYUKI MINEZAWA, JONATHAN MULLIN, TAKESHI NAGATA,
     SEAN NEDD, HEATHER NETZLOFF, BOSILJKA NJEGIC, RYAN OLSON, MIKE PAK,
     JIM SHOEMAKER, LYUDMILA SLIPCHENKO, SAROM SOK, JIE SONG,
     TETSUYA TAKETSUGU, SIMON WEBB, SOOHAENG YOO, FEDERICO ZAHARIEV

  ADDITIONAL CODE HAS BEEN PROVIDED BY COLLABORATORS IN OTHER GROUPS:
     IOWA STATE UNIVERSITY:
          JOE IVANIC, LAIMUTIS BYTAUTAS, KLAUS RUEDENBERG
     UNIVERSITY OF TOKYO: KIMIHIKO HIRAO, TAKAHITO NAKAJIMA,
          TAKAO TSUNEDA, MUNEAKI KAMIYA, SUSUMU YANAGISAWA,
          KIYOSHI YAGI, MAHITO CHIBA, SEIKEN TOKURA, NAOAKI KAWAKAMI
     UNIVERSITY OF AARHUS: FRANK JENSEN
     UNIVERSITY OF IOWA: VISVALDAS KAIRYS, HUI LI
     NATIONAL INST. OF STANDARDS AND TECHNOLOGY: WALT STEVENS, DAVID GARMER
     UNIVERSITY OF PISA: BENEDETTA MENNUCCI, JACOPO TOMASI
     UNIVERSITY OF MEMPHIS: HENRY KURTZ, PRAKASHAN KORAMBATH
     UNIVERSITY OF ALBERTA: TOBY ZENG, MARIUSZ KLOBUKOWSKI
     UNIVERSITY OF NEW ENGLAND: MARK SPACKMAN
     MIE UNIVERSITY: HIROAKI UMEDA
     MICHIGAN STATE UNIVERSITY:
          KAROL KOWALSKI, MARTA WLOCH, JEFFREY GOUR, JESSE LUTZ, PIOTR PIECUCH
     UNIVERSITY OF SILESIA: MONIKA MUSIAL, STANISLAW KUCHARSKI
     FACULTES UNIVERSITAIRES NOTRE-DAME DE LA PAIX:
          OLIVIER QUINET, BENOIT CHAMPAGNE
     UNIVERSITY OF CALIFORNIA - SANTA BARBARA: BERNARD KIRTMAN
     INSTITUTE FOR MOLECULAR SCIENCE:
          KAZUYA ISHIMURA, MICHIO KATOUDA, AND SHIGERU NAGASE
     UNIVERSITY OF NOTRE DAME: DAN CHIPMAN
     KYUSHU UNIVERSITY:
          HARUYUKI NAKANO,
          FENG LONG GU, JACEK KORCHOWIEC, MARCIN MAKOWSKI, AND YURIKO AOKI,
          HIROTOSHI MORI AND EISAKU MIYOSHI
     PENNSYLVANIA STATE UNIVERSITY:
          TZVETELIN IORDANOV, CHET SWALINA, JONATHAN SKONE,
          SHARON HAMMES-SCHIFFER
     WASEDA UNIVERSITY:
          MASATO KOBAYASHI, TOMOKO AKAMA, HIROMI NAKAI
     UNIVERSITY OF NEBRASKA:
          PEIFENG SU, DEJUN SI, YALI WANG, HUI LI
     UNIVERSITY OF ZURICH:
          ROBERTO PEVERATI, KIM BALDRIDGE
     N. COPERNICUS UNIVERSITY AND JACKSON STATE UNIVERSITY:
          MARIA BARYSZ


 PARALLEL VERSION RUNNING ON    16 PROCESSORS IN     1 NODES.

 EXECUTION OF GAMESS BEGUN Thu Jun  2 13:27:58 2011

            ECHO OF THE FIRST FEW INPUT CARDS -
 INPUT CARD>!   File created by MacMolPlt 7.4.2                                             
 INPUT CARD> $CONTRL SCFTYP=MCSCF RUNTYP=OPTIMIZE MAXIT=30 MULT=2 ISPHER=1 COORD=ZMT        
 INPUT CARD>    NOSYM=1 NZVAR=6 $END                                                        
 INPUT CARD> $SYSTEM TIMLIM=525600 MWORDS=1000 $END                                         
 INPUT CARD> $DET NCORE=3 NACT=13 NELS=17 $END                                              
 INPUT CARD> $GUESS GUESS=MOREAD NORB=78 $END                                               
 INPUT CARD> $BASIS GBASIS=ACCD $END                                                        
 INPUT CARD> $STATPT IFREEZ(1)=2 $END                                                       
 INPUT CARD> $DATA                                                                          
 INPUT CARD>CS HCO2 data                                                                    
 INPUT CARD>C1                                                                              
 INPUT CARD>C                                                                               
 INPUT CARD>O   1    1.21399                                                                
 INPUT CARD>O   1    1.34300  2 121.6405                                                    
 INPUT CARD>H   1    1.09901  2 116.2198  3 180.0000                                        
 INPUT CARD> $END                                                                           
 INPUT CARD> $ZMAT IZMAT(1)=1,2,1, 1,3,1, 2,3,1,2, 1,4,1, 2,4,1,2, 3,4,1,2,3 $END           
 INPUT CARD> $VEC                                                                           
 INPUT CARD> 1  1-2.00151965E-04-4.67084021E-04 9.66797909E-03-2.64231198E-04 9.89206874E-04
 INPUT CARD> 1  2-0.00000000E+00-6.69133067E-03 4.71925934E-03-0.00000000E+00-2.12021949E-04
 INPUT CARD> 1  3 3.93480170E-04-1.81458221E-04 4.40369542E-04-0.00000000E+00-0.00000000E+00
 INPUT CARD> 1  4 3.80035750E-03 1.23259286E-05-3.37408587E-05-0.00000000E+00 2.24453827E-03
 INPUT CARD> 1  5-9.50238367E-04-1.29429990E-03-3.44366883E-03-0.00000000E+00-0.00000000E+00
 INPUT CARD> 1  6 3.42507930E-03-1.68492295E-05-3.70773023E-04 3.75453727E-04-3.56627891E-04
 INPUT CARD> 1  7-0.00000000E+00 1.24371132E-03 2.59537695E-04-0.00000000E+00-9.36750946E-05
 INPUT CARD> 1  8 8.92996565E-05 4.37543811E-06-4.07768777E-05-0.00000000E+00-0.00000000E+00
 INPUT CARD> 1  9 3.89673003E-04-6.12922742E-04 6.84774249E-05-0.00000000E+00-3.64074563E-04
 INPUT CARD> 1 10-3.52770222E-05 3.99351586E-04-1.58295943E-05-0.00000000E+00-0.00000000E+00
 INPUT CARD> 1 11 1.00120161E+00-1.56967815E-02-3.34900479E-02 7.17842500E-03-4.08043590E-03
 INPUT CARD> 1 12-0.00000000E+00-8.34252749E-04-2.35946594E-04-0.00000000E+00 4.02262877E-05
 INPUT CARD> 1 13-1.67860965E-04 1.27634677E-04-2.22153687E-04-0.00000000E+00-0.00000000E+00
 INPUT CARD> 1 14-8.08532418E-03-1.54501551E-03 3.61381210E-04-0.00000000E+00-5.09916445E-04
 INPUT CARD> 1 15 3.24038282E-04 1.85878163E-04 5.29853137E-04-0.00000000E+00-0.00000000E+00
 INPUT CARD> 1 16-1.84756841E-03 6.75399630E-04 2.19099460E-04-5.35069403E-04-0.00000000E+00
 INPUT CARD> 1 17-9.08727308E-04-1.35782009E-03 1.58614367E-04-0.00000000E+00               
 INPUT CARD> 2  1 5.49177991E-04 1.17010894E-04 1.20368062E-02-1.92420507E-04 6.09315184E-05
 INPUT CARD> 2  2 0.00000000E+00 6.23837539E-03 5.01874553E-03 0.00000000E+00-6.46018951E-04
 INPUT CARD> 2  3 5.72866486E-04 7.31524657E-05-1.27982430E-03 0.00000000E+00 0.00000000E+00
 INPUT CARD> 2  4 4.80226252E-03 2.69434328E-04-1.27476784E-05 0.00000000E+00 1.27350507E-03
 INPUT CARD> 2  5-1.22920637E-04-1.15058444E-03 2.93643754E-03 0.00000000E+00 0.00000000E+00
 INPUT CARD> 2  6 1.00131346E+00-1.74224500E-02-3.67657112E-02-8.61636154E-03-5.72470950E-03
 INPUT CARD> 2  7 0.00000000E+00-4.83466979E-04-1.14212591E-03 0.00000000E+00 1.39510664E-04
 INPUT CARD> 2  8 5.28722946E-05-1.92382959E-04 1.77826383E-04 0.00000000E+00 0.00000000E+00
 INPUT CARD> 2  9-9.96013702E-03 1.40443754E-03 4.68287691E-04 0.00000000E+00-3.10534702E-04
 INPUT CARD> 2 10 1.01557064E-04 2.08977637E-04-2.70053515E-04 0.00000000E+00 0.00000000E+00
 INPUT CARD> 2 11-3.28961859E-03 5.49832249E-04 8.07708194E-05 7.48623789E-05 9.93499808E-04
 INPUT CARD> 2 12 0.00000000E+00-9.90451524E-04 9.26083813E-04 0.00000000E+00-9.67237879E-05
 INPUT CARD> 2 13 7.51205605E-05 2.16032274E-05 4.24276546E-05 0.00000000E+00 0.00000000E+00
 INPUT CARD> 2 14-8.31637270E-07 4.38655922E-04 2.76674263E-04 0.00000000E+00-4.17945466E-04
 INPUT CARD> 2 15 7.15544883E-05 3.46390977E-04-8.98105295E-08 0.00000000E+00 0.00000000E+00
 1000000000 WORDS OF MEMORY AVAILABLE

     BASIS OPTIONS
     -------------
     GBASIS=ACCD         IGAUSS=       0      POLAR=NONE    
     NDFUNC=       0     NFFUNC=       0     DIFFSP=       F
     NPFUNC=       0      DIFFS=       F     BASNAM=        


     RUN TITLE
     ---------
 CS HCO2 data                                                                    

 THE POINT GROUP OF THE MOLECULE IS C1      
 THE ORDER OF THE PRINCIPAL AXIS IS     0

 YOUR FULLY SUBSTITUTED Z-MATRIX IS
 C   
 O      1   1.2139900
 O      1   1.3430000  2  121.6405
 H      1   1.0990100  2  116.2198  3  180.0000  0

 THE MOMENTS OF INERTIA ARE (AMU-ANGSTROM**2)
 IXX=     5.719   IYY=    39.970   IZZ=    45.689

 ATOM      ATOMIC                      COORDINATES (BOHR)
           CHARGE         X                   Y                   Z
 C           6.0     0.1096768957       -0.7867377644        0.0000000000
 O           8.0     2.0589091106        0.4229842538        0.0000000000
 O           8.0    -2.1608835356        0.3470619962        0.0000000000
 H           1.0     0.3125036599       -2.8536375779        0.0000000000

          INTERNUCLEAR DISTANCES (ANGS.)
          ------------------------------

                1 C          2 O          3 O          4 H     

   1 C       0.0000000    1.2139900 *  1.3430000 *  1.0990100 *
   2 O       1.2139900 *  0.0000000    2.2333797 *  1.9648218 *
   3 O       1.3430000 *  2.2333797 *  0.0000000    2.1405283 *
   4 H       1.0990100 *  1.9648218 *  2.1405283 *  0.0000000  

  * ... LESS THAN  3.000


     ATOMIC BASIS SET
     ----------------
 THE CONTRACTED PRIMITIVE FUNCTIONS HAVE BEEN UNNORMALIZED
 THE CONTRACTED BASIS FUNCTIONS ARE NOW NORMALIZED TO UNITY

  SHELL TYPE  PRIMITIVE        EXPONENT          CONTRACTION COEFFICIENT(S)

 C         

      1   S       1          6665.0000000    0.000691583963
      1   S       2          1000.0000000    0.005325796153
      1   S       3           228.0000000    0.027060721042
      1   S       4            64.7100000    0.101656846141
      1   S       5            21.0600000    0.274574823617
      1   S       6             7.4950000    0.448294318924
      1   S       7             2.7970000    0.284902610715
      1   S       8             0.5215000    0.015194859206

      2   S       9          6665.0000000   -0.000293269653
      2   S      10          1000.0000000   -0.002318035474
      2   S      11           228.0000000   -0.011499786039
      2   S      12            64.7100000   -0.046826727010
      2   S      13            21.0600000   -0.128466168750
      2   S      14             7.4950000   -0.301266272463
      2   S      15             2.7970000   -0.255630702330
      2   S      16             0.5215000    1.093793361012

      3   S      17             0.1596000    1.000000000000

      4   P      18             9.4390000    0.056979251590
      4   P      19             2.0020000    0.313207211501
      4   P      20             0.5456000    0.760376741738

      5   P      21             0.1517000    1.000000000000

      6   D      22             0.5500000    1.000000000000

      7   S      23             0.0469000    1.000000000000

      8   P      24             0.0404100    1.000000000000

      9   D      25             0.1510000    1.000000000000

 O         

     10   S      26         11720.0000000    0.000709645947
     10   S      27          1759.0000000    0.005467272292
     10   S      28           400.8000000    0.027823118610
     10   S      29           113.7000000    0.104747739711
     10   S      30            37.0300000    0.282920846357
     10   S      31            13.2700000    0.448495238698
     10   S      32             5.0250000    0.270816885213
     10   S      33             1.0130000    0.015450291607

     11   S      34         11720.0000000   -0.000314443412
     11   S      35          1759.0000000   -0.002482137681
     11   S      36           400.8000000   -0.012316355382
     11   S      37           113.7000000   -0.050538917344
     11   S      38            37.0300000   -0.139384903316
     11   S      39            13.2700000   -0.325077494818
     11   S      40             5.0250000   -0.229848307588
     11   S      41             1.0130000    1.095379346788

     12   S      42             0.3023000    1.000000000000

     13   P      43            17.7000000    0.062679166282
     13   P      44             3.8540000    0.333536565879
     13   P      45             1.0460000    0.741239641640

     14   P      46             0.2753000    1.000000000000

     15   D      47             1.1850000    1.000000000000

     16   S      48             0.0789600    1.000000000000

     17   P      49             0.0685600    1.000000000000

     18   D      50             0.3320000    1.000000000000

 O         

     19   S      51         11720.0000000    0.000709645947
     19   S      52          1759.0000000    0.005467272292
     19   S      53           400.8000000    0.027823118610
     19   S      54           113.7000000    0.104747739711
     19   S      55            37.0300000    0.282920846357
     19   S      56            13.2700000    0.448495238698
     19   S      57             5.0250000    0.270816885213
     19   S      58             1.0130000    0.015450291607

     20   S      59         11720.0000000   -0.000314443412
     20   S      60          1759.0000000   -0.002482137681
     20   S      61           400.8000000   -0.012316355382
     20   S      62           113.7000000   -0.050538917344
     20   S      63            37.0300000   -0.139384903316
     20   S      64            13.2700000   -0.325077494818
     20   S      65             5.0250000   -0.229848307588
     20   S      66             1.0130000    1.095379346788

     21   S      67             0.3023000    1.000000000000

     22   P      68            17.7000000    0.062679166282
     22   P      69             3.8540000    0.333536565879
     22   P      70             1.0460000    0.741239641640

     23   P      71             0.2753000    1.000000000000

     24   D      72             1.1850000    1.000000000000

     25   S      73             0.0789600    1.000000000000

     26   P      74             0.0685600    1.000000000000

     27   D      75             0.3320000    1.000000000000

 H         

     28   S      76            13.0100000    0.033498726390
     28   S      77             1.9620000    0.234800801174
     28   S      78             0.4446000    0.813682957883

     29   S      79             0.1220000    1.000000000000

     30   P      80             0.7270000    1.000000000000

     31   S      81             0.0297400    1.000000000000

     32   P      82             0.1410000    1.000000000000

 TOTAL NUMBER OF BASIS SET SHELLS             =   32
 NUMBER OF CARTESIAN GAUSSIAN BASIS FUNCTIONS =   84
 NOTE: THIS RUN WILL RESTRICT THE MO VARIATION SPACE TO SPHERICAL HARMONICS.
 THE NUMBER OF ORBITALS KEPT IN THE VARIATIONAL SPACE WILL BE PRINTED LATER.
 NUMBER OF ELECTRONS                          =   23
 CHARGE OF MOLECULE                           =    0
 SPIN MULTIPLICITY                            =    2
 NUMBER OF OCCUPIED ORBITALS (ALPHA)          =   12
 NUMBER OF OCCUPIED ORBITALS (BETA )          =   11
 TOTAL NUMBER OF ATOMS                        =    4
 THE NUCLEAR REPULSION ENERGY IS       62.0219608970

     $CONTRL OPTIONS
     ---------------
 SCFTYP=MCSCF        RUNTYP=OPTIMIZE     EXETYP=RUN     
 MPLEVL=       0     CITYP =NONE         CCTYP =NONE         VBTYP =NONE    
 DFTTYP=NONE         TDDFT =NONE    
 MULT  =       2     ICHARG=       0     NZVAR =       6     COORD =ZMT     
 PP    =NONE         RELWFN=NONE         LOCAL =NONE         NUMGRD=       F
 ISPHER=       1     NOSYM =       1     MAXIT =      30     UNITS =ANGS    
 PLTORB=       F     MOLPLT=       F     AIMPAC=       F     FRIEND=        
 NPRINT=       7     IREST =       0     GEOM  =INPUT   
 NORMF =       0     NORMP =       0     ITOL  =      20     ICUT  =       9
 INTTYP=BEST         GRDTYP=BEST         QMTTOL= 1.0E-06

     $SYSTEM OPTIONS
     ---------------
  REPLICATED MEMORY=  1000000000 WORDS (ON EVERY NODE).
 DISTRIBUTED MEMDDI=           0 MILLION WORDS IN AGGREGATE,
 MEMDDI DISTRIBUTED OVER  16 PROCESSORS IS           0 WORDS/PROCESSOR.
 TOTAL MEMORY REQUESTED ON EACH PROCESSOR=  1000000000 WORDS.
 TIMLIM=      525600.00 MINUTES, OR     365.0 DAYS.
 PARALL= T  BALTYP=  DLB     KDIAG=    0  COREFL= F
 MXSEQ2=     300 MXSEQ3=     150

          ----------------
          PROPERTIES INPUT
          ----------------

     MOMENTS            FIELD           POTENTIAL          DENSITY
 IEMOM =       1   IEFLD =       0   IEPOT =       0   IEDEN =       0
 WHERE =COMASS     WHERE =NUCLEI     WHERE =NUCLEI     WHERE =NUCLEI  
 OUTPUT=BOTH       OUTPUT=BOTH       OUTPUT=BOTH       OUTPUT=BOTH    
 IEMINT=       0   IEFINT=       0                     IEDINT=       0
                                                       MORB  =       0

     -------------------------------
     INTEGRAL TRANSFORMATION OPTIONS
     -------------------------------
     NWORD  =            0
     CUTOFF = 1.0E-09     MPTRAN =       0
     DIRTRF =       F     AOINTS =DUP     

          ----------------------
          MCSCF INPUT PARAMETERS
          ----------------------
 CONVERGER SELECTION: FOCAS = F  SOSCF = T  FULLNR = F  QUD = F  JACOBI = F
 SECULAR EQUATION METHOD CISTEP = ALDET   
 --- GENERAL INPUT OPTIONS:
 MAXIT =      60  MICIT =       5  ACURCY= 1.000E-05
 DAMP  =   0.000  CANONC=       T  ENGTOL= 1.000E-10
 EKT   =       F  NPUNCH=       2  NWORD =         0
 --- INPUT FOR SOSCF CONVERGER:
 FORS  =       T  NOFO  =       1

          ----------------------
          INTEGRAL INPUT OPTIONS
          ----------------------
 NOPK  =       1 NORDER=       0 SCHWRZ=       F

   --- ENCODED Z MATRIX ---
 COORD  TYPE   I   J   K   L   M   N
    1      1    2   1
    2      1    3   1
    3      2    3   1   2
    4      1    4   1
    5      2    4   1   2
    6      3    4   1   2   3

 THE DETERMINANT OF THE G MATRIX IS 10**(    -4)


                     --------------------
                     INTERNAL COORDINATES
                     --------------------

                 - - ATOMS - -         COORDINATE      COORDINATE
 NO.   TYPE    I  J  K  L  M  N        (BOHR,RAD)       (ANG,DEG)
 ----------------------------------------------------------------
   1 STRETCH   2  1                     2.2941085       1.2139900
   2 STRETCH   3  1                     2.5379020       1.3430000
   3 BEND      3  1  2                  2.1230272     121.6405000
   4 STRETCH   4  1                     2.0768278       1.0990100
   5 BEND      4  1  2                  2.0284182     116.2198000
   6 TORSION   4  1  2  3               3.1415927     180.0000000

     ------------------------------------------
     THE POINT GROUP IS C1 , NAXIS= 1, ORDER= 1
     ------------------------------------------

 -- VARIATIONAL SPACE WILL BE RESTRICTED TO PURE SPHERICAL HARMONICS ONLY --
 AFTER EXCLUDING CONTAMINANT COMBINATIONS FROM THE CARTESIAN GAUSSIAN BASIS
 SET, THE NUMBER OF SPHERICAL HARMONICS KEPT IN THE VARIATION SPACE IS   78

     DIMENSIONS OF THE SYMMETRY SUBSPACES ARE
 A   =   78

 ..... DONE SETTING UP THE RUN .....
 CPU     0: STEP CPU TIME=     0.07 TOTAL CPU TIME=        0.1 (    0.0 MIN)
 TOTAL WALL CLOCK TIME=        0.1 SECONDS, CPU UTILIZATION IS  77.78%


          -----------------------------
          STATIONARY POINT LOCATION RUN
          -----------------------------

 OBTAINING INITIAL HESSIAN, HESS=GUESS   
 DIAGONAL GUESS HESSIAN IN INTERNAL COORDS IS
     1  0.5480     2  0.4265     3  0.2587     4  0.3404     5  0.2318
     6  0.2500

          PARAMETERS CONTROLLING GEOMETRY SEARCH ARE
          METHOD =QA                  UPHESS =BFGS    
          NNEG   =         0          NFRZ   =         1
          NSTEP  =        50          IFOLOW =         1
          HESS   =GUESS               RESTAR =         F
          IHREP  =         0          HSSEND =         F
          NPRT   =         0          NPUN   =         0
          OPTTOL = 1.000E-04          RMIN   = 1.500E-03
          RMAX   = 1.000E-01          RLIM   = 7.000E-02
          DXMAX  = 3.000E-01          PURIFY =         F
          MOVIE  =         F          TRUPD  =         T
          TRMAX  = 5.000E-01          TRMIN  = 5.000E-02
          ITBMAT =         5          STPT   =         F
          STSTEP = 1.000E-02          PROJCT=          T
          FROZEN COORD(S)=   2

 BEGINNING GEOMETRY SEARCH POINT NSERCH=   0 ...

 COORDINATES OF ALL ATOMS ARE (ANGS)
   ATOM   CHARGE       X              Y              Z
 ------------------------------------------------------------
 C           6.0   0.0580385180  -0.4163237260   0.0000000000
 O           8.0   1.0895278596   0.2238336439   0.0000000000
 O           8.0  -1.1434904053   0.1836573125   0.0000000000
 H           1.0   0.1653698271  -1.5100800838   0.0000000000


                     --------------------
                     INTERNAL COORDINATES
                     --------------------

                 - - ATOMS - -         COORDINATE      COORDINATE
 NO.   TYPE    I  J  K  L  M  N        (BOHR,RAD)       (ANG,DEG)
 ----------------------------------------------------------------
   1 STRETCH   2  1                     2.2941085       1.2139900
   2 STRETCH   3  1                     2.5379020       1.3430000
   3 BEND      3  1  2                  2.1230272     121.6405000
   4 STRETCH   4  1                     2.0768278       1.0990100
   5 BEND      4  1  2                  2.0284182     116.2198000
   6 TORSION   4  1  2  3               3.1415927     180.0000000

          ********************
          1 ELECTRON INTEGRALS
          ********************
 TIME TO DO   DIPOLE INTEGRALS=      0.00
 ...... END OF ONE-ELECTRON INTEGRALS ......
 CPU     0: STEP CPU TIME=     0.01 TOTAL CPU TIME=        0.1 (    0.0 MIN)
 TOTAL WALL CLOCK TIME=        0.1 SECONDS, CPU UTILIZATION IS  80.00%

          -------------
          GUESS OPTIONS
          -------------
          GUESS =MOREAD            NORB  =      78          NORDER=       0
          MIX   =       F          PRTMO =       F          PUNMO =       F
          TOLZ  = 1.0E-08          TOLE  = 1.0E-05
          SYMDEN=       F          PURIFY=       F

 INITIAL GUESS ORBITALS GENERATED BY MOREAD   ROUTINE.

 STATISTICS FOR GENERATION OF SYMMETRY ORBITAL -Q- MATRIX
 NUMBER OF CARTESIAN ATOMIC ORBITALS=         84
 NUMBER OF SPHERICAL CONTAMINANTS DROPPED=     6
 NUMBER OF LINEARLY DEPENDENT MOS DROPPED=     0
 TOTAL NUMBER OF MOS IN VARIATION SPACE=      78

 SYMMETRIES FOR INITIAL GUESS ORBITALS FOLLOW.   BOTH SET(S).
    12 ORBITALS ARE OCCUPIED (    3 CORE ORBITALS).
     1=A        2=A        3=A        4=A        5=A        6=A        7=A   
     8=A        9=A       10=A       11=A       12=A       13=A       14=A   
    15=A       16=A       17=A       18=A       19=A       20=A       21=A   
    22=A       23=A       24=A       25=A       26=A       27=A       28=A   
    29=A       30=A       31=A       32=A       33=A       34=A       35=A   
    36=A       37=A       38=A       39=A       40=A       41=A       42=A   
    43=A       44=A       45=A       46=A       47=A       48=A       49=A   
    50=A       51=A       52=A       53=A       54=A       55=A       56=A   
    57=A       58=A       59=A       60=A       61=A       62=A       63=A   
    64=A       65=A       66=A       67=A       68=A       69=A       70=A   
    71=A       72=A       73=A       74=A       75=A       76=A       77=A   
    78=A   
 ...... END OF INITIAL ORBITAL SELECTION ......
 CPU     0: STEP CPU TIME=     0.02 TOTAL CPU TIME=        0.1 (    0.0 MIN)
 TOTAL WALL CLOCK TIME=        0.1 SECONDS, CPU UTILIZATION IS  83.33%

                    ----------------------
                    AO INTEGRAL TECHNOLOGY
                    ----------------------
     S,P,L SHELL ROTATED AXIS INTEGRALS, REPROGRAMMED BY
        KAZUYA ISHIMURA (IMS) AND JOSE SIERRA (SYNSTAR).
     S,P,D,L SHELL ROTATED AXIS INTEGRALS PROGRAMMED BY
        KAZUYA ISHIMURA (INSTITUTE FOR MOLECULAR SCIENCE).
     S,P,D,F,G SHELL TO TOTAL QUARTET ANGULAR MOMENTUM SUM 5,
        ERIC PROGRAM BY GRAHAM FLETCHER (ELORET AND NASA ADVANCED
        SUPERCOMPUTING DIVISION, AMES RESEARCH CENTER).
     S,P,D,F,G,L SHELL GENERAL RYS QUADRATURE PROGRAMMED BY
        MICHEL DUPUIS (PACIFIC NORTHWEST NATIONAL LABORATORY).

          --------------------
          2 ELECTRON INTEGRALS
          --------------------

 THE -PK- OPTION IS OFF, THE INTEGRALS ARE NOT IN SUPERMATRIX FORM.
 STORING   15000 INTEGRALS/RECORD ON DISK, USING 12 BYTES/INTEGRAL.
 TWO ELECTRON INTEGRAL EVALUATION REQUIRES   90924 WORDS OF MEMORY.
 II,JST,KST,LST =  1  1  1  1 NREC =         1 INTLOC =    1
 II,JST,KST,LST =  2  1  1  1 NREC =         1 INTLOC =    2
 II,JST,KST,LST =  3  1  1  1 NREC =         1 INTLOC =    7
 II,JST,KST,LST =  4  1  1  1 NREC =         1 INTLOC =   22
 II,JST,KST,LST =  5  1  1  1 NREC =         1 INTLOC =   67
 II,JST,KST,LST =  6  1  1  1 NREC =         1 INTLOC =  214
 II,JST,KST,LST =  7  1  1  1 NREC =         1 INTLOC = 1189
 II,JST,KST,LST =  8  1  1  1 NREC =         1 INTLOC = 1589
 II,JST,KST,LST =  9  1  1  1 NREC =         1 INTLOC = 2864
 II,JST,KST,LST = 10  1  1  1 NREC =         1 INTLOC = 7967
 II,JST,KST,LST = 11  1  1  1 NREC =         1 INTLOC =12848
 II,JST,KST,LST = 12  1  1  1 NREC =         2 INTLOC = 3377
 II,JST,KST,LST = 13  1  1  1 NREC =         2 INTLOC = 9614
 II,JST,KST,LST = 14  1  1  1 NREC =         4 INTLOC =  829
 II,JST,KST,LST = 15  1  1  1 NREC =         5 INTLOC =13738
 II,JST,KST,LST = 16  1  1  1 NREC =        11 INTLOC = 4129
 II,JST,KST,LST = 17  1  1  1 NREC =        12 INTLOC = 7423
 II,JST,KST,LST = 18  1  1  1 NREC =        16 INTLOC = 6025
 II,JST,KST,LST = 19  1  1  1 NREC =        26 INTLOC = 9997
 II,JST,KST,LST = 20  1  1  1 NREC =        29 INTLOC =  286
 II,JST,KST,LST = 21  1  1  1 NREC =        31 INTLOC = 8902
 II,JST,KST,LST = 22  1  1  1 NREC =        34 INTLOC = 5191
 II,JST,KST,LST = 23  1  1  1 NREC =        42 INTLOC =13818
 II,JST,KST,LST = 24  1  1  1 NREC =        53 INTLOC =  149
 II,JST,KST,LST = 25  1  1  1 NREC =        77 INTLOC =14164
 II,JST,KST,LST = 26  1  1  1 NREC =        83 INTLOC = 2267
 II,JST,KST,LST = 27  1  1  1 NREC =        99 INTLOC = 2505
 II,JST,KST,LST = 28  1  1  1 NREC =       137 INTLOC = 9624
 II,JST,KST,LST = 29  1  1  1 NREC =       145 INTLOC = 9438
 II,JST,KST,LST = 30  1  1  1 NREC =       153 INTLOC =14645
 II,JST,KST,LST = 31  1  1  1 NREC =       179 INTLOC = 6169
 II,JST,KST,LST = 32  1  1  1 NREC =       189 INTLOC = 2028
 TOTAL NUMBER OF NONZERO TWO-ELECTRON INTEGRALS =             3265047
        218 INTEGRAL RECORDS WERE STORED ON DISK FILE  8.
  ...... END OF TWO-ELECTRON INTEGRALS .....
 STEP CPU TIME =     1.13 TOTAL CPU TIME =        1.2 (    0.0 MIN)
 TOTAL WALL CLOCK TIME=        1.3 SECONDS, CPU UTILIZATION IS  97.62%

          -----------------
          MCSCF CALCULATION
          -----------------

 ----- NUCLEAR ENERGY ----- =        62.0219608970

     --------------------------------------------------
          AMES LABORATORY DETERMINANTAL FULL CI
     PROGRAM WRITTEN BY JOE IVANIC AND KLAUS RUEDENBERG
     --------------------------------------------------

 THE POINT GROUP                  =   C1      
 THE STATE SYMMETRY               =   A       
 NUMBER OF CORE ORBITALS          =    3
 NUMBER OF ACTIVE ORBITALS        =   13
 NUMBER OF ALPHA ELECTRONS        =   12 (   9 ACTIVE)
 NUMBER OF BETA ELECTRONS         =   11 (   8 ACTIVE)
 NUMBER OF OCCUPIED ORBITALS      =   16
 NUMBER OF CI STATES REQUESTED    =    1
 NUMBER OF CI STARTING VECTORS    =    1
 MAX. NO. OF CI EXPANSION VECTORS =   10
 SIZE OF INITIAL CI GUESS MATRIX  =  300
 MAX. NO. OF CI ITERS/STATE       =  100
 CI DIAGONALIZATION CRITERION     = 1.00E-06
 PURE SPIN STATE AVERAGED 1E- AND 2E- DENSITY MATRIX OPTION=.T.
 STATE=   1 DM2 WEIGHT=   1.00000

 CORRELATION ENERGY ANALYSIS      =    F

 SYMMETRIES FOR THE   3 CORE,  13 ACTIVE ARE

     CORE= A     A     A   

   ACTIVE= A     A     A     A     A     A     A     A     A     A   
           A     A     A   
 OPENING FILE DAFL30 WITH      81 LOGICAL RECORDS OF    7056 WORDS
 WITH A MAXIMUM OF         324 PHYSICAL RECORDS OF    2048 WORDS

          ------------------------------
          CASSCF INTEGRAL TRANSFORMATION
          ------------------------------
 AO INTEGRALS WILL BE READ IN FROM DISK...
 MEMORY WHICH WOULD BE NEEDED FOR SINGLE PASS TRANSFORMATION =    4301176

 ----- CHOOSING THREE STEPS TRANSFORMATION -----
 NUMBER OF WORDS USED      =     667728
 NUMBER OF WORDS AVAILABLE =  999999964
 NUMBER OF PASSES          =         16
 PASS #   1 COMPLETED IN         0.1 SECONDS.
 PASS #   2 IS ASSIGNED TO A DIFFERENT PROCESSOR.
 PASS #   3 IS ASSIGNED TO A DIFFERENT PROCESSOR.
 PASS #   4 IS ASSIGNED TO A DIFFERENT PROCESSOR.
 PASS #   5 IS ASSIGNED TO A DIFFERENT PROCESSOR.
 PASS #   6 IS ASSIGNED TO A DIFFERENT PROCESSOR.
 PASS #   7 IS ASSIGNED TO A DIFFERENT PROCESSOR.
 PASS #   8 IS ASSIGNED TO A DIFFERENT PROCESSOR.
 PASS #   9 IS ASSIGNED TO A DIFFERENT PROCESSOR.
 PASS #  10 IS ASSIGNED TO A DIFFERENT PROCESSOR.
 PASS #  11 IS ASSIGNED TO A DIFFERENT PROCESSOR.
 PASS #  12 IS ASSIGNED TO A DIFFERENT PROCESSOR.
 PASS #  13 IS ASSIGNED TO A DIFFERENT PROCESSOR.
 PASS #  14 IS ASSIGNED TO A DIFFERENT PROCESSOR.
 PASS #  15 IS ASSIGNED TO A DIFFERENT PROCESSOR.
 PASS #  16 IS ASSIGNED TO A DIFFERENT PROCESSOR.

 ----- NUCLEAR REPULSION ENERGY =     62.02196090
 ----- FROZEN CORE ENERGY       =   -178.99972395

 ... SYMMETRY ...           CPU =    0.00
 ... (PQ|RS) -> (PQ|KL) ... CPU =    0.22
 ... (PQ|KL) -> (IJ|KL) ... CPU =    0.00

 NUMBER OF (PQ|KL) INTEGRALS WRITTEN     174225
 NUMBER OF (IJ|KL) INTEGRALS WRITTEN       2356
 ..... END OF CAS INTEGRAL TRANSFORMATION .....
 CPU     0: STEP CPU TIME=     0.22 TOTAL CPU TIME=        1.4 (    0.0 MIN)
 TOTAL WALL CLOCK TIME=        1.5 SECONDS, CPU UTILIZATION IS  97.32%

     --------------------------------------------------
          AMES LABORATORY DETERMINANTAL FULL CI
     PROGRAM WRITTEN BY JOE IVANIC AND KLAUS RUEDENBERG
     --------------------------------------------------

 THE NUMBER OF DETERMINANTS HAVING SPACE SYMMETRY A  
 IN POINT GROUP C1   WITH SZ=  0.5 IS         920205
 WHICH INCLUDES         429429 CSFS WITH S=  0.5
 WHICH INCLUDES         356928 CSFS WITH S=  1.5
 WHICH INCLUDES         117117 CSFS WITH S=  2.5
 WHICH INCLUDES          16016 CSFS WITH S=  3.5
 WHICH INCLUDES            715 CSFS WITH S=  4.5
 THE DETERMINANT FULL CI REQUIRES        19565353 WORDS
 INITIAL CI VECTOR GUESS TIME  :          0.5
 INITIAL FULL CI ITERATION TIME:          1.7

 ITERATION      ENERGY           GRADIENT
     0     -188.1811317066     0.54964720
     1     -188.2882924039     0.20227799
     2     -188.2990755595     0.07159518
     3     -188.3002580855     0.02831142
     4     -188.3004582879     0.01238565
     5     -188.3005019188     0.00653550
     6     -188.3005197158     0.00482338
     7     -188.3005307058     0.00404174
     8     -188.3005387511     0.00347707
     9     -188.3005430156     0.00234235
    10     -188.3005441879     0.00122683
    11     -188.3005448647     0.00089007
    12     -188.3005451413     0.00059421
    13     -188.3005452603     0.00039386
    14     -188.3005453293     0.00034918
    15     -188.3005453815     0.00026831
    16     -188.3005454068     0.00018233
    17     -188.3005454169     0.00009398
    18     -188.3005454194     0.00004868
    19     -188.3005454199     0.00002563
    20     -188.3005454202     0.00001622
    21     -188.3005454203     0.00000836
    22     -188.3005454203     0.00000398
    23     -188.3005454203     0.00000237
    24     -188.3005454203     0.00000205
    25     -188.3005454203     0.00000161
    26     -188.3005454203     0.00000114
    27     -188.3005454203     0.00000095

 CONVERGED STATE    1 ENERGY=     -188.3005454203 IN   27 ITERS

 ALL STATES CONVERGED.

 CI EIGENVECTORS WILL BE LABELED IN GROUP=C1      
 PRINTING CI COEFFICIENTS LARGER THAN  0.050000

 STATE   1  ENERGY=      -188.3005454203  S=  0.50  SZ=  0.50  SPACE SYM=A   

    ALPHA      |    BETA       | COEFFICIENT
---------------|---------------|------------
 1111111110000 | 1111111100000 |   0.9588097
 1111110111000 | 1111110101000 |   0.0991649
 ..... DONE WITH DETERMINANT CI COMPUTATION .....
 CPU     0: STEP CPU TIME=    54.58 TOTAL CPU TIME=       56.0 (    0.9 MIN)
 TOTAL WALL CLOCK TIME=       63.1 SECONDS, CPU UTILIZATION IS  88.84%

     --------------------------------------------------
      ONE AND TWO PARTICLE DENSITY MATRIX COMPUTATION
     PROGRAM WRITTEN BY JOE IVANIC AND KLAUS RUEDENBERG
     --------------------------------------------------

     954954 WORDS WILL BE USED TO FORM THE DENSITIES
 THE DENSITIES ARE STATE AVERAGED OVER   1 ROOT(S)
 STATE=   1   ENERGY=     -188.3005454203   WEIGHT= 1.00000   S=  0.50
 SIEVING THE A    SYMMETRY NONZERO DENSITY ELEMENTS IN GROUP C1      
       2356 NONZERO DM2 ELEMENTS WRITTEN IN       1 RECORDS TO FILE 15
 ..... DONE WITH 1 AND 2 PARTICLE DENSITY MATRIX .....
 CPU     0: STEP CPU TIME=     1.69 TOTAL CPU TIME=       57.7 (    1.0 MIN)
 TOTAL WALL CLOCK TIME=       64.8 SECONDS, CPU UTILIZATION IS  89.12%

          --------------------------------------
          APPROXIMATE SECOND-ORDER MCSCF PROGRAM
          --------------------------------------
          PROGRAM WRITTEN BY G.CHABAN, A.MARQUEZ, AND M.DUPUIS

  NUMBER OF WORDS NEEDED     =     405021
  NUMBER AVAILABLE           =  999999964

 ----- GAMMA(IJKL)*(PQ|KL) PRODUCTS ----- CPU TIME =      0.180
 ----- ORBITAL SYMMETRY             ----- CPU TIME =      0.000
 ----- FOCK OPERATORS CONSTRUCTION  ----- CPU TIME =      0.010
     MICIT =   1 ASYMM =    0.000004 ROTMAX =    0.000001
 ----- EFFECTIVE FOCK + ROTATE ORBS ----- CPU TIME =      0.000
 ..... DONE WITH CASSCF ORBITAL UPDATE .....
 CPU     0: STEP CPU TIME=     0.20 TOTAL CPU TIME=       57.9 (    1.0 MIN)
 TOTAL WALL CLOCK TIME=       65.0 SECONDS, CPU UTILIZATION IS  89.12%

 ITER     TOTAL ENERGY      DEL(E)  LAGRANGIAN ASYMMETRY   SQCDF  MICIT   DAMP
   1     -188.300545420 -0.300545420  0.000004   12    2 7.562E-07  1   0.0000
       ----------START APPROXIMATE SECOND ORDER MCSCF----------
   2     -188.300545420 -0.000000000  0.000002   12    2 2.579E-10  1   0.0000

          --------------------
          LAGRANGIAN CONVERGED
          --------------------

 FINAL MCSCF ENERGY IS     -188.3005454203 AFTER   2 ITERATIONS

 -MCCI- BASED ON OPTIMIZED ORBITALS
 ----------------------------------

 PLEASE NOTE: IF THE ACTIVE ORBITALS ARE CANONICALIZED BELOW,
 THE FOLLOWING CI EXPANSION COEFFICIENTS AND THE DENSITY DO NOT
 CORRESPOND TO THE PRINTED ORBITALS.  THE PRINTED EXPANSIONS MATCH
 THE ORBITALS USED DURING THE LAST ITERATION.  IF YOU WISH TO SEE
 CI EXPANSIONS BASED ON THE CANONICAL (OR NATURAL) ORBITALS, YOU
 MUST RUN A CI CALCULATION WITH THAT ORBITAL CHOICE READ IN $VEC.

 CI EIGENVECTORS WILL BE LABELED IN GROUP=C1      
 PRINTING CI COEFFICIENTS LARGER THAN  0.050000

 STATE   1  ENERGY=      -188.3005454203  S=  0.50  SZ=  0.50  SPACE SYM=A   

    ALPHA      |    BETA       | COEFFICIENT
---------------|---------------|------------
 1111111110000 | 1111111100000 |   0.9588096
 1111110111000 | 1111110101000 |   0.0991649

 DENSITY MATRIX OVER ACTIVE MO-S

             1           2           3           4           5

    1    1.9929745
    2    0.0004638   1.9931835
    3   -0.0037711  -0.0013931   1.9935818
    4   -0.0060300  -0.0035395  -0.0040149   1.9830146
    5    0.0043886  -0.0088029   0.0002961   0.0003790   1.9770721
    6   -0.0000000   0.0000000   0.0000000  -0.0000000   0.0000000
    7    0.0000000  -0.0000000  -0.0000000   0.0000000  -0.0000000
    8    0.0024130   0.0040490   0.0047178  -0.0044076   0.0064360
    9   -0.0003344   0.0000853   0.0147553  -0.0282314   0.0320778
   10   -0.0000000   0.0000000   0.0000000  -0.0000000   0.0000000
   11   -0.0017998  -0.0031278  -0.0052255  -0.0131940  -0.0018934
   12   -0.0018702  -0.0006084   0.0048373  -0.0033810  -0.0030204
   13    0.0005738   0.0010091   0.0007251  -0.0015736   0.0001644

             6           7           8           9          10

    6    1.9801458
    7   -0.0131437   1.9517686
    8   -0.0000000  -0.0000000   1.9713152
    9   -0.0000000   0.0000000   0.0008842   1.0119368
   10   -0.0510786  -0.0050072  -0.0000000   0.0000000   0.0695328
   11   -0.0000000  -0.0000000  -0.0125821   0.0074491  -0.0000000
   12   -0.0000000   0.0000000  -0.0069367   0.0057184   0.0000000
   13    0.0000000   0.0000000  -0.0007039  -0.0181530   0.0000000

            11          12          13

   11    0.0340707
   12    0.0024420   0.0209242
   13   -0.0033048   0.0035044   0.0204793

 NO ORBITALS WILL BE CANONICALIZED

          ----------------------
          MCSCF NATURAL ORBITALS
          ----------------------

                      1          2          3          4          5

                    2.0000     2.0000     2.0000     1.9985     1.9977

    1  C  1  S    0.669201   0.157181   0.730928   0.006969  -0.005644
    2  C  1  S   -0.002527  -0.001041  -0.002567   0.085503  -0.152761
    3  C  1  S    0.000967  -0.000008  -0.021539  -0.038967   0.001745
    4  C  1  X    0.000009  -0.000082   0.000449  -0.006845  -0.040004
    5  C  1  Y    0.009303   0.002934   0.009358  -0.075562   0.116199
    6  C  1  Z    0.000000   0.000000   0.000000   0.000000   0.000000
    7  C  1  X    0.002066  -0.008896  -0.000817   0.040876   0.040330
    8  C  1  Y    0.010581   0.002940   0.001637  -0.051138   0.044851
    9  C  1  Z    0.000000   0.000000   0.000000   0.000000   0.000000
   10  C  1 XX    0.000480   0.000369   0.001511   0.002003  -0.002260
   11  C  1 YY    0.000206  -0.000015  -0.000801   0.001169  -0.002949
   12  C  1 ZZ   -0.000686  -0.000353  -0.000710  -0.003173   0.005209
   13  C  1 XY   -0.000879   0.000980   0.000358  -0.007430  -0.020978
   14  C  1 XZ    0.000000   0.000000   0.000000   0.000000   0.000000
   15  C  1 YZ    0.000000   0.000000   0.000000   0.000000   0.000000
   16  C  1  S    0.002585   0.000470  -0.006148  -0.029397   0.028940
   17  C  1  X   -0.000013  -0.000170  -0.000370   0.001005   0.000756
   18  C  1  Y    0.001286   0.000285   0.001447  -0.005985   0.008319
   19  C  1  Z    0.000000   0.000000   0.000000   0.000000   0.000000
   20  C  1 XX    0.001561   0.001310  -0.001586  -0.017797   0.007465
   21  C  1 YY   -0.000835  -0.000868  -0.000054   0.007062   0.000429
   22  C  1 ZZ   -0.000726  -0.000441   0.001640   0.010735  -0.007894
   23  C  1 XY    0.000842  -0.004450  -0.000309   0.025143   0.015929
   24  C  1 XZ    0.000000   0.000000   0.000000   0.000000   0.000000
   25  C  1 YZ    0.000000   0.000000   0.000000   0.000000   0.000000
   26  O  2  S    0.694619  -0.489677  -0.529492  -0.000703  -0.029270
   27  O  2  S   -0.011874   0.008601   0.009406   0.006476  -0.408220
   28  O  2  S   -0.026934   0.017446   0.018052   0.009102  -0.488118
   29  O  2  X   -0.006109   0.004504   0.004114  -0.014766  -0.101414
   30  O  2  Y   -0.004879   0.002319   0.002283   0.011434  -0.062602
   31  O  2  Z    0.000000   0.000000   0.000000   0.000000   0.000000
   32  O  2  X    0.001719   0.001706   0.001582  -0.019863  -0.062427
   33  O  2  Y   -0.000774   0.000771   0.000428   0.008815  -0.045880
   34  O  2  Z    0.000000   0.000000   0.000000   0.000000   0.000000
   35  O  2 XX    0.000306  -0.000094   0.000224   0.000286   0.000284
   36  O  2 YY   -0.000103   0.000012  -0.000247   0.000373  -0.002118
   37  O  2 ZZ   -0.000203   0.000082   0.000022  -0.000660   0.001834
   38  O  2 XY    0.000223  -0.000096   0.000046   0.001515  -0.003644
   39  O  2 XZ    0.000000   0.000000   0.000000   0.000000   0.000000
   40  O  2 YZ    0.000000   0.000000   0.000000   0.000000   0.000000
   41  O  2  S   -0.007444   0.005080   0.004369   0.000466  -0.081885
   42  O  2  X    0.001143  -0.001136  -0.000102   0.001164   0.005602
   43  O  2  Y   -0.000435  -0.000355  -0.001128   0.009110  -0.012003
   44  O  2  Z    0.000000   0.000000   0.000000   0.000000   0.000000
   45  O  2 XX   -0.000886  -0.000293  -0.000301   0.002951   0.004304
   46  O  2 YY    0.000089  -0.000073  -0.000007   0.000773  -0.002883
   47  O  2 ZZ    0.000797   0.000367   0.000308  -0.003724  -0.001421
   48  O  2 XY   -0.001025  -0.000077  -0.000762   0.001290   0.002098
   49  O  2 XZ    0.000000   0.000000   0.000000   0.000000   0.000000
   50  O  2 YZ    0.000000   0.000000   0.000000   0.000000   0.000000
   51  O  3  S    0.274304   0.859090  -0.434900   0.032063   0.006165
   52  O  3  S   -0.004914  -0.013940   0.005503   0.456524   0.086651
   53  O  3  S   -0.012395  -0.029477   0.011059   0.558090   0.100581
   54  O  3  X    0.003096   0.006362  -0.002006  -0.147104  -0.011507
   55  O  3  Y    0.000160  -0.003843   0.001908   0.077552   0.044303
   56  O  3  Z    0.000000   0.000000   0.000000   0.000000   0.000000
   57  O  3  X   -0.002134  -0.000514  -0.000443  -0.075220  -0.014073
   58  O  3  Y    0.001584  -0.000421   0.000715   0.043574   0.028945
   59  O  3  Z    0.000000   0.000000   0.000000   0.000000   0.000000
   60  O  3 XX   -0.000029   0.000088   0.000063   0.000048   0.000015
   61  O  3 YY   -0.000087  -0.000202  -0.000067   0.000458  -0.000985
   62  O  3 ZZ    0.000116   0.000114   0.000004  -0.000506   0.000970
   63  O  3 XY    0.000124  -0.000174   0.000245  -0.001392   0.002806
   64  O  3 XZ    0.000000   0.000000   0.000000   0.000000   0.000000
   65  O  3 YZ    0.000000   0.000000   0.000000   0.000000   0.000000
   66  O  3  S   -0.003207  -0.007154   0.002462   0.082588   0.008167
   67  O  3  X   -0.000106  -0.001535   0.000461   0.004289   0.006186
   68  O  3  Y   -0.000248   0.000046  -0.000893   0.005214  -0.004631
   69  O  3  Z    0.000000   0.000000   0.000000   0.000000   0.000000
   70  O  3 XX   -0.001160  -0.000403  -0.000354  -0.001356  -0.004130
   71  O  3 YY    0.000241   0.000266  -0.000068  -0.000927  -0.002233
   72  O  3 ZZ    0.000919   0.000137   0.000422   0.002283   0.006363
   73  O  3 XY    0.001097   0.000678   0.000808  -0.001703   0.005414
   74  O  3 XZ    0.000000   0.000000   0.000000   0.000000   0.000000
   75  O  3 YZ    0.000000   0.000000   0.000000   0.000000   0.000000
   76  H  4  S   -0.011530  -0.003560  -0.010026   0.118629  -0.179317
   77  H  4  S    0.003711   0.001088   0.002928   0.045627  -0.083162
   78  H  4  X    0.000171   0.000305   0.000205  -0.003010   0.001604
   79  H  4  Y   -0.001687  -0.000455  -0.000732   0.012481  -0.018834
   80  H  4  Z    0.000000   0.000000   0.000000   0.000000   0.000000
   81  H  4  S   -0.000148  -0.000039   0.001910   0.006437  -0.005658
   82  H  4  X    0.000236  -0.001639   0.000045   0.009680   0.012301
   83  H  4  Y    0.001826   0.000513   0.001795   0.005878  -0.015960
   84  H  4  Z    0.000000   0.000000   0.000000   0.000000   0.000000

                      6          7          8          9         10

                    1.9972     1.9864     1.9782     1.9775     1.9644

    1  C  1  S    0.026827   0.000000   0.000092   0.003165   0.000819
    2  C  1  S    0.229857   0.000000   0.281727   0.092568   0.035117
    3  C  1  S    0.133273   0.000000   0.172300   0.034565   0.083932
    4  C  1  X   -0.011878   0.000000  -0.104056   0.362385   0.231153
    5  C  1  Y   -0.296233   0.000000   0.293412   0.085332   0.081778
    6  C  1  Z    0.000000  -0.222443   0.000000   0.000000   0.000000
    7  C  1  X   -0.005925   0.000000   0.006319   0.042652   0.031521
    8  C  1  Y   -0.029040   0.000000  -0.003961   0.028123  -0.005029
    9  C  1  Z    0.000000  -0.077460   0.000000   0.000000   0.000000
   10  C  1 XX   -0.020731   0.000000   0.035180   0.039852  -0.059366
   11  C  1 YY    0.018983   0.000000  -0.014256  -0.033964   0.056003
   12  C  1 ZZ    0.001748   0.000000  -0.020923  -0.005888   0.003364
   13  C  1 XY   -0.002207   0.000000  -0.010320   0.023663   0.052808
   14  C  1 XZ    0.000000   0.026966   0.000000   0.000000   0.000000
   15  C  1 YZ    0.000000  -0.017210   0.000000   0.000000   0.000000
   16  C  1  S    0.002084   0.000000   0.026737   0.022116   0.038865
   17  C  1  X    0.002665   0.000000   0.003658   0.000288   0.011805
   18  C  1  Y   -0.009358   0.000000  -0.006466   0.009553  -0.015082
   19  C  1  Z    0.000000  -0.000138   0.000000   0.000000   0.000000
   20  C  1 XX    0.000064   0.000000   0.000515   0.013460  -0.014072
   21  C  1 YY   -0.003699   0.000000  -0.009954  -0.017009   0.016394
   22  C  1 ZZ    0.003634   0.000000   0.009440   0.003549  -0.002322
   23  C  1 XY    0.014531   0.000000  -0.001354  -0.013133  -0.017936
   24  C  1 XZ    0.000000  -0.004715   0.000000   0.000000   0.000000
   25  C  1 YZ    0.000000   0.019873   0.000000   0.000000   0.000000
   26  O  2  S   -0.018952   0.000000  -0.004684  -0.006424  -0.004707
   27  O  2  S   -0.240742   0.000000   0.006779   0.046140   0.016501
   28  O  2  S   -0.296376   0.000000  -0.062732  -0.052752  -0.050686
   29  O  2  X   -0.072295   0.000000  -0.254649  -0.130395  -0.438595
   30  O  2  Y   -0.055327   0.000000  -0.055626  -0.525110   0.279958
   31  O  2  Z    0.000000  -0.047566   0.000000   0.000000   0.000000
   32  O  2  X   -0.051523   0.000000  -0.126404  -0.009426  -0.251238
   33  O  2  Y   -0.031109   0.000000  -0.005994  -0.306191   0.223159
   34  O  2  Z    0.000000  -0.027077   0.000000   0.000000   0.000000
   35  O  2 XX   -0.003810   0.000000   0.015507   0.003667   0.015340
   36  O  2 YY    0.004085   0.000000  -0.008549   0.006545  -0.008721
   37  O  2 ZZ   -0.000275   0.000000  -0.006958  -0.010212  -0.006619
   38  O  2 XY    0.003766   0.000000   0.007824   0.021960   0.005046
   39  O  2 XZ    0.000000   0.006426   0.000000   0.000000   0.000000
   40  O  2 YZ    0.000000   0.003924   0.000000   0.000000   0.000000
   41  O  2  S   -0.036099   0.000000  -0.043226  -0.088797  -0.035201
   42  O  2  X   -0.003867   0.000000   0.002819   0.028652  -0.037823
   43  O  2  Y    0.017664   0.000000   0.000827  -0.034536   0.055977
   44  O  2  Z    0.000000   0.006558   0.000000   0.000000   0.000000
   45  O  2 XX    0.000820   0.000000   0.009352  -0.014638   0.004162
   46  O  2 YY    0.004540   0.000000  -0.011359   0.010682  -0.004731
   47  O  2 ZZ   -0.005360   0.000000   0.002007   0.003956   0.000569
   48  O  2 XY    0.012463   0.000000  -0.006156   0.000574  -0.007301
   49  O  2 XZ    0.000000   0.009542   0.000000   0.000000   0.000000
   50  O  2 YZ    0.000000   0.003539   0.000000   0.000000   0.000000
   51  O  3  S   -0.009149   0.000000  -0.005671   0.002811   0.000427
   52  O  3  S   -0.131372   0.000000   0.042279  -0.000465  -0.084071
   53  O  3  S   -0.158906   0.000000  -0.011093   0.030577  -0.077958
   54  O  3  X    0.018874   0.000000   0.378699  -0.133035  -0.197614
   55  O  3  Y   -0.045405   0.000000  -0.162378   0.065218   0.240780
   56  O  3  Z    0.000000  -0.591771   0.000000   0.000000   0.000000
   57  O  3  X    0.009865   0.000000   0.213908  -0.063758  -0.114967
   58  O  3  Y   -0.022860   0.000000  -0.085327   0.034946   0.142855
   59  O  3  Z    0.000000  -0.410483   0.000000   0.000000   0.000000
   60  O  3 XX   -0.001580   0.000000   0.016685  -0.003675  -0.002181
   61  O  3 YY    0.002696   0.000000  -0.006850  -0.000947  -0.001694
   62  O  3 ZZ   -0.001116   0.000000  -0.009836   0.004622   0.003875
   63  O  3 XY   -0.004808   0.000000  -0.012736   0.007324   0.009778
   64  O  3 XZ    0.000000  -0.014987   0.000000   0.000000   0.000000
   65  O  3 YZ    0.000000   0.008293   0.000000   0.000000   0.000000
   66  O  3  S   -0.011987   0.000000  -0.018753   0.006765   0.018253
   67  O  3  X   -0.004766   0.000000   0.007477   0.000705  -0.010884
   68  O  3  Y    0.013733   0.000000  -0.001817  -0.006314   0.010458
   69  O  3  Z    0.000000  -0.044234   0.000000   0.000000   0.000000
   70  O  3 XX    0.000333   0.000000   0.010518   0.007328   0.001581
   71  O  3 YY    0.005145   0.000000  -0.006264  -0.007677  -0.000458
   72  O  3 ZZ   -0.005478   0.000000  -0.004254   0.000349  -0.001124
   73  O  3 XY   -0.010738   0.000000  -0.003775   0.005079   0.005337
   74  O  3 XZ    0.000000  -0.025156   0.000000   0.000000   0.000000
   75  O  3 YZ    0.000000   0.014366   0.000000   0.000000   0.000000
   76  H  4  S    0.355223   0.000000  -0.090164  -0.071379   0.061937
   77  H  4  S    0.178985   0.000000  -0.142930  -0.060348   0.024834
   78  H  4  X   -0.005235   0.000000  -0.003358   0.005802   0.007984
   79  H  4  Y    0.028874   0.000000   0.001685   0.002068  -0.002799
   80  H  4  Z    0.000000  -0.006984   0.000000   0.000000   0.000000
   81  H  4  S    0.001220   0.000000  -0.010636  -0.008015  -0.005646
   82  H  4  X   -0.002584   0.000000   0.001751   0.012010  -0.018860
   83  H  4  Y    0.033253   0.000000  -0.037916   0.002300  -0.019883
   84  H  4  Z    0.000000   0.012251   0.000000   0.000000   0.000000

                     11         12         13         14         15

                    1.9469     1.0103     0.0682     0.0347     0.0241

    1  C  1  S    0.000000   0.001760   0.000000  -0.081892   0.098589
    2  C  1  S    0.000000  -0.003123   0.000000  -0.433389   0.432165
    3  C  1  S    0.000000  -0.043460   0.000000  -0.428237   0.324640
    4  C  1  X    0.000000   0.023363   0.000000   0.379151   0.698531
    5  C  1  Y    0.000000   0.043728   0.000000  -0.403259   0.287682
    6  C  1  Z    0.290820   0.000000  -0.591239   0.000000   0.000000
    7  C  1  X    0.000000   0.026802   0.000000   0.098130   0.235477
    8  C  1  Y    0.000000   0.079544   0.000000  -0.100558   0.109125
    9  C  1  Z    0.135056   0.000000  -0.273985   0.000000   0.000000
   10  C  1 XX    0.000000   0.019199   0.000000   0.020644   0.037327
   11  C  1 YY    0.000000  -0.018280   0.000000  -0.030166  -0.040529
   12  C  1 ZZ    0.000000  -0.000918   0.000000   0.009521   0.003201
   13  C  1 XY    0.000000   0.035693   0.000000   0.000480   0.020225
   14  C  1 XZ    0.047054   0.000000  -0.014414   0.000000   0.000000
   15  C  1 YZ    0.019237   0.000000  -0.025540   0.000000   0.000000
   16  C  1  S    0.000000   0.016908   0.000000  -0.106778   0.091722
   17  C  1  X    0.000000   0.003648   0.000000  -0.008220   0.009560
   18  C  1  Y    0.000000   0.004118   0.000000   0.021955   0.016271
   19  C  1  Z    0.006944   0.000000   0.008453   0.000000   0.000000
   20  C  1 XX    0.000000  -0.011630   0.000000  -0.005117   0.034195
   21  C  1 YY    0.000000   0.014630   0.000000  -0.013053  -0.028942
   22  C  1 ZZ    0.000000  -0.003000   0.000000   0.018170  -0.005254
   23  C  1 XY    0.000000  -0.046831   0.000000   0.017894   0.027398
   24  C  1 XZ    0.001578   0.000000  -0.018408   0.000000   0.000000
   25  C  1 YZ   -0.010245   0.000000  -0.003845   0.000000   0.000000
   26  O  2  S    0.000000  -0.001279   0.000000   0.024309  -0.077035
   27  O  2  S    0.000000   0.016079   0.000000   0.112248  -0.318021
   28  O  2  S    0.000000   0.011996   0.000000   0.093632  -0.367658
   29  O  2  X    0.000000  -0.170255   0.000000  -0.432309   0.555423
   30  O  2  Y    0.000000   0.067756   0.000000   0.263216   0.632278
   31  O  2  Z    0.527238   0.000000   0.648410   0.000000   0.000000
   32  O  2  X    0.000000  -0.092047   0.000000   0.042017   0.115601
   33  O  2  Y    0.000000   0.053279   0.000000  -0.151782  -0.103411
   34  O  2  Z    0.352401   0.000000   0.068933   0.000000   0.000000
   35  O  2 XX    0.000000   0.005539   0.000000  -0.013162  -0.007504
   36  O  2 YY    0.000000  -0.003976   0.000000   0.014814   0.011835
   37  O  2 ZZ    0.000000  -0.001563   0.000000  -0.001652  -0.004332
   38  O  2 XY    0.000000   0.001265   0.000000   0.012712   0.006941
   39  O  2 XZ   -0.018983   0.000000   0.005624   0.000000   0.000000
   40  O  2 YZ   -0.012042   0.000000   0.002037   0.000000   0.000000
   41  O  2  S    0.000000  -0.023285   0.000000   0.022810  -0.260026
   42  O  2  X    0.000000  -0.001657   0.000000   0.040828   0.055980
   43  O  2  Y    0.000000   0.006694   0.000000  -0.058870  -0.033073
   44  O  2  Z    0.042346   0.000000  -0.033336   0.000000   0.000000
   45  O  2 XX    0.000000   0.007001   0.000000  -0.049172  -0.004503
   46  O  2 YY    0.000000  -0.008089   0.000000   0.043095   0.022169
   47  O  2 ZZ    0.000000   0.001088   0.000000   0.006077  -0.017665
   48  O  2 XY    0.000000  -0.001987   0.000000   0.023721   0.043362
   49  O  2 XZ   -0.022955   0.000000   0.031623   0.000000   0.000000
   50  O  2 YZ   -0.013211   0.000000   0.008290   0.000000   0.000000
   51  O  3  S    0.000000   0.000263   0.000000   0.056181   0.016394
   52  O  3  S    0.000000  -0.003621   0.000000   0.274438   0.061301
   53  O  3  S    0.000000  -0.016248   0.000000   0.266277   0.051200
   54  O  3  X    0.000000  -0.349379   0.000000   0.582363   0.031747
   55  O  3  Y    0.000000  -0.578387   0.000000  -0.226188  -0.127633
   56  O  3  Z   -0.209308   0.000000   0.328802   0.000000   0.000000
   57  O  3  X    0.000000  -0.232741   0.000000   0.132023   0.002595
   58  O  3  Y    0.000000  -0.389891   0.000000  -0.026749  -0.007385
   59  O  3  Z   -0.157645   0.000000   0.072053   0.000000   0.000000
   60  O  3 XX    0.000000  -0.009819   0.000000  -0.010016   0.004983
   61  O  3 YY    0.000000   0.009386   0.000000   0.017054  -0.004622
   62  O  3 ZZ    0.000000   0.000432   0.000000  -0.007037  -0.000361
   63  O  3 XY    0.000000  -0.006081   0.000000   0.010678   0.012978
   64  O  3 XZ    0.001619   0.000000  -0.007971   0.000000   0.000000
   65  O  3 YZ   -0.000282   0.000000   0.000373   0.000000   0.000000
   66  O  3  S    0.000000  -0.016054   0.000000   0.105638   0.021025
   67  O  3  X    0.000000  -0.021207   0.000000   0.021866   0.014084
   68  O  3  Y    0.000000  -0.027505   0.000000  -0.010467  -0.007064
   69  O  3  Z   -0.035351   0.000000  -0.000033   0.000000   0.000000
   70  O  3 XX    0.000000  -0.020934   0.000000  -0.018690   0.007523
   71  O  3 YY    0.000000   0.022547   0.000000   0.008775  -0.014462
   72  O  3 ZZ    0.000000  -0.001613   0.000000   0.009916   0.006940
   73  O  3 XY    0.000000  -0.014238   0.000000   0.019495   0.014377
   74  O  3 XZ    0.002006   0.000000  -0.022334   0.000000   0.000000
   75  O  3 YZ    0.001818   0.000000   0.006132   0.000000   0.000000
   76  H  4  S    0.000000  -0.062591   0.000000   0.043887  -0.084763
   77  H  4  S    0.000000   0.024205   0.000000   0.067859  -0.076242
   78  H  4  X    0.000000   0.001854   0.000000   0.010775   0.020035
   79  H  4  Y    0.000000  -0.000420   0.000000   0.009192   0.006797
   80  H  4  Z    0.008615   0.000000  -0.017304   0.000000   0.000000
   81  H  4  S    0.000000  -0.004240   0.000000   0.024007  -0.019759
   82  H  4  X    0.000000  -0.043638   0.000000   0.024002   0.024523
   83  H  4  Y    0.000000   0.023298   0.000000   0.041883  -0.001672
   84  H  4  Z   -0.005712   0.000000   0.010218   0.000000   0.000000

                     16

                    0.0160

    1  C  1  S    0.076468
    2  C  1  S    0.316323
    3  C  1  S    0.097136
    4  C  1  X   -0.432465
    5  C  1  Y   -0.112165
    6  C  1  Z    0.000000
    7  C  1  X   -0.150627
    8  C  1  Y   -0.011376
    9  C  1  Z    0.000000
   10  C  1 XX    0.229438
   11  C  1 YY   -0.213378
   12  C  1 ZZ   -0.016060
   13  C  1 XY   -0.107498
   14  C  1 XZ    0.000000
   15  C  1 YZ    0.000000
   16  C  1  S   -0.012541
   17  C  1  X   -0.040795
   18  C  1  Y    0.064178
   19  C  1  Z    0.000000
   20  C  1 XX    0.085876
   21  C  1 YY   -0.086681
   22  C  1 ZZ    0.000805
   23  C  1 XY   -0.010104
   24  C  1 XZ    0.000000
   25  C  1 YZ    0.000000
   26  O  2  S    0.054592
   27  O  2  S    0.164576
   28  O  2  S    0.006971
   29  O  2  X   -0.407691
   30  O  2  Y    0.507712
   31  O  2  Z    0.000000
   32  O  2  X    0.214264
   33  O  2  Y   -0.409524
   34  O  2  Z    0.000000
   35  O  2 XX   -0.023163
   36  O  2 YY    0.019084
   37  O  2 ZZ    0.004079
   38  O  2 XY    0.005506
   39  O  2 XZ    0.000000
   40  O  2 YZ    0.000000
   41  O  2  S   -0.027657
   42  O  2  X    0.096367
   43  O  2  Y   -0.161168
   44  O  2  Z    0.000000
   45  O  2 XX   -0.060021
   46  O  2 YY    0.042802
   47  O  2 ZZ    0.017219
   48  O  2 XY    0.046713
   49  O  2 XZ    0.000000
   50  O  2 YZ    0.000000
   51  O  3  S   -0.032175
   52  O  3  S   -0.108504
   53  O  3  S   -0.125189
   54  O  3  X   -0.278041
   55  O  3  Y    0.400564
   56  O  3  Z    0.000000
   57  O  3  X    0.014821
   58  O  3  Y   -0.004119
   59  O  3  Z    0.000000
   60  O  3 XX   -0.008289
   61  O  3 YY   -0.007100
   62  O  3 ZZ    0.015389
   63  O  3 XY   -0.035483
   64  O  3 XZ    0.000000
   65  O  3 YZ    0.000000
   66  O  3  S   -0.157016
   67  O  3  X    0.011279
   68  O  3  Y   -0.026049
   69  O  3  Z    0.000000
   70  O  3 XX    0.010715
   71  O  3 YY   -0.012503
   72  O  3 ZZ    0.001788
   73  O  3 XY   -0.031552
   74  O  3 XZ    0.000000
   75  O  3 YZ    0.000000
   76  H  4  S   -0.221113
   77  H  4  S   -0.152927
   78  H  4  X   -0.012890
   79  H  4  Y    0.020861
   80  H  4  Z    0.000000
   81  H  4  S    0.011644
   82  H  4  X    0.055184
   83  H  4  Y    0.024726
   84  H  4  Z    0.000000

          ------------------------
          MCSCF OPTIMIZED ORBITALS
          ------------------------

                      1          2          3          4          5
                    0.0000     0.0000     0.0000     0.0000     0.0000
                     A          A          A          A          A   
    1  C  1  S   -0.000200   0.000549   1.003390   0.002455   0.002489
    2  C  1  S   -0.000467   0.000116  -0.003719   0.242104  -0.021617
    3  C  1  S    0.009668   0.012036  -0.015051   0.037095  -0.022946
    4  C  1  X   -0.000264  -0.000190   0.000320   0.036509  -0.221640
    5  C  1  Y    0.000989   0.000063   0.013482   0.104081  -0.022583
    6  C  1  Z    0.000000   0.000000   0.000000   0.000000   0.000000
    7  C  1  X   -0.006691   0.006239  -0.000616   0.013345   0.029291
    8  C  1  Y    0.004719   0.005019   0.008708  -0.048524  -0.016084
    9  C  1  Z    0.000000   0.000000   0.000000   0.000000   0.000000
   10  C  1 XX   -0.000212  -0.000646   0.001479   0.028590   0.005239
   11  C  1 YY    0.000394   0.000573  -0.000449  -0.012466  -0.005115
   12  C  1 ZZ   -0.000181   0.000073  -0.001030  -0.016124  -0.000124
   13  C  1 XY    0.000440  -0.001279  -0.000171   0.008328  -0.041239
   14  C  1 XZ    0.000000   0.000000   0.000000   0.000000   0.000000
   15  C  1 YZ    0.000000   0.000000   0.000000   0.000000   0.000000
   16  C  1  S    0.003800   0.004802  -0.002683  -0.017810  -0.015022
   17  C  1  X    0.000012   0.000269  -0.000305   0.001680  -0.001464
   18  C  1  Y   -0.000034  -0.000013   0.001956  -0.008373   0.000643
   19  C  1  Z    0.000000   0.000000   0.000000   0.000000   0.000000
   20  C  1 XX    0.002244   0.001273   0.000091  -0.013019  -0.007130
   21  C  1 YY   -0.000950  -0.000123  -0.000732  -0.002317   0.004152
   22  C  1 ZZ   -0.001294  -0.001151   0.000641   0.015336   0.002978
   23  C  1 XY   -0.003444   0.002936  -0.000363  -0.000237   0.036494
   24  C  1 XZ    0.000000   0.000000   0.000000   0.000000   0.000000
   25  C  1 YZ    0.000000   0.000000   0.000000   0.000000   0.000000
   26  O  2  S    0.003425   1.001314   0.000301   0.017172  -0.017965
   27  O  2  S   -0.000016  -0.017417   0.000289   0.302394  -0.295221
   28  O  2  S   -0.000370  -0.036760  -0.002060   0.311198  -0.308050
   29  O  2  X    0.000376  -0.008617  -0.000367  -0.088934   0.048211
   30  O  2  Y   -0.000356  -0.005724  -0.001224  -0.047197   0.048789
   31  O  2  Z    0.000000   0.000000   0.000000   0.000000   0.000000
   32  O  2  X    0.001244  -0.000484   0.002566  -0.033043  -0.001457
   33  O  2  Y    0.000260  -0.001141  -0.000083  -0.007872   0.010420
   34  O  2  Z    0.000000   0.000000   0.000000   0.000000   0.000000
   35  O  2 XX   -0.000094   0.000140   0.000353   0.009148  -0.003532
   36  O  2 YY    0.000089   0.000053  -0.000247  -0.002621  -0.001388
   37  O  2 ZZ    0.000004  -0.000192  -0.000106  -0.006527   0.004920
   38  O  2 XY   -0.000041   0.000178   0.000167   0.009630  -0.008345
   39  O  2 XZ    0.000000   0.000000   0.000000   0.000000   0.000000
   40  O  2 YZ    0.000000   0.000000   0.000000   0.000000   0.000000
   41  O  2  S    0.000390  -0.009960  -0.000981   0.019556  -0.021932
   42  O  2  X   -0.000613   0.001404   0.000509   0.003316   0.005290
   43  O  2  Y    0.000069   0.000468  -0.001168   0.004952  -0.003860
   44  O  2  Z    0.000000   0.000000   0.000000   0.000000   0.000000
   45  O  2 XX   -0.000364  -0.000311  -0.000856   0.001245   0.009270
   46  O  2 YY   -0.000035   0.000102   0.000043  -0.002549  -0.004258
   47  O  2 ZZ    0.000399   0.000209   0.000813   0.001304  -0.005012
   48  O  2 XY   -0.000016  -0.000270  -0.001251  -0.006004   0.004584
   49  O  2 XZ    0.000000   0.000000   0.000000   0.000000   0.000000
   50  O  2 YZ    0.000000   0.000000   0.000000   0.000000   0.000000
   51  O  3  S    1.001202  -0.003289   0.000916   0.015547   0.021694
   52  O  3  S   -0.015695   0.000553  -0.001456   0.271556   0.359571
   53  O  3  S   -0.033488   0.000084  -0.004835   0.310375   0.411975
   54  O  3  X    0.007177   0.000073   0.001601   0.068312   0.043909
   55  O  3  Y   -0.004080   0.000995   0.000894  -0.029524  -0.033999
   56  O  3  Z    0.000000   0.000000   0.000000   0.000000   0.000000
   57  O  3  X   -0.000835  -0.000991  -0.001826   0.049550   0.021956
   58  O  3  Y   -0.000236   0.000927   0.001511  -0.016710  -0.016974
   59  O  3  Z    0.000000   0.000000   0.000000   0.000000   0.000000
   60  O  3 XX    0.000040  -0.000097   0.000040   0.007647   0.003637
   61  O  3 YY   -0.000168   0.000075  -0.000139  -0.003169  -0.000066
   62  O  3 ZZ    0.000128   0.000022   0.000098  -0.004478  -0.003571
   63  O  3 XY   -0.000222   0.000043   0.000234  -0.006101  -0.006191
   64  O  3 XZ    0.000000   0.000000   0.000000   0.000000   0.000000
   65  O  3 YZ    0.000000   0.000000   0.000000   0.000000   0.000000
   66  O  3  S   -0.008085  -0.000000  -0.001468   0.040412   0.047246
   67  O  3  X   -0.001545   0.000439   0.000025   0.003441   0.009740
   68  O  3  Y    0.000361   0.000277  -0.000809   0.001354   0.000875
   69  O  3  Z    0.000000   0.000000   0.000000   0.000000   0.000000
   70  O  3 XX   -0.000510  -0.000418  -0.001095   0.007733  -0.004949
   71  O  3 YY    0.000324   0.000071   0.000153  -0.004586   0.000422
   72  O  3 ZZ    0.000186   0.000346   0.000942  -0.003148   0.004528
   73  O  3 XY    0.000530   0.000000   0.001426  -0.002749  -0.002385
   74  O  3 XZ    0.000000   0.000000   0.000000   0.000000   0.000000
   75  O  3 YZ    0.000000   0.000000   0.000000   0.000000   0.000000
   76  H  4  S   -0.001847  -0.000944  -0.015551   0.048623  -0.002401
   77  H  4  S    0.000676   0.000490   0.004779  -0.038765  -0.007919
   78  H  4  X    0.000219  -0.000140   0.000312  -0.002103  -0.005904
   79  H  4  Y   -0.000535  -0.000558  -0.001730   0.013519  -0.000339
   80  H  4  Z    0.000000   0.000000   0.000000   0.000000   0.000000
   81  H  4  S   -0.000909  -0.001090   0.001287   0.000453   0.003563
   82  H  4  X   -0.001358   0.000946  -0.000067   0.001612   0.015080
   83  H  4  Y    0.000159   0.000065   0.002606  -0.012321  -0.002465
   84  H  4  Z    0.000000   0.000000   0.000000   0.000000   0.000000

                      6          7          8          9         10
                    0.0000     0.0000     0.0000     0.0000     0.0000
                     A          A          A          A          A   
    1  C  1  S    0.023554  -0.013596   0.000127   0.000000   0.000000
    2  C  1  S    0.323992   0.041790  -0.067022   0.000000   0.000000
    3  C  1  S    0.182419   0.097883  -0.098110   0.000000   0.000000
    4  C  1  X   -0.036263  -0.188136  -0.327791   0.000000   0.000000
    5  C  1  Y   -0.156846   0.333140  -0.210129   0.000000   0.000000
    6  C  1  Z    0.000000   0.000000   0.000000   0.294591   0.192317
    7  C  1  X   -0.011077  -0.015616  -0.067879   0.000000   0.000000
    8  C  1  Y   -0.022466   0.021812  -0.029773   0.000000   0.000000
    9  C  1  Z    0.000000   0.000000   0.000000   0.112641   0.098402
   10  C  1 XX    0.004989   0.010097   0.000108   0.000000   0.000000
   11  C  1 YY    0.002625   0.001038  -0.004117   0.000000   0.000000
   12  C  1 ZZ   -0.007614  -0.011135   0.004009   0.000000   0.000000
   13  C  1 XY   -0.005593  -0.012527  -0.031162   0.000000   0.000000
   14  C  1 XZ    0.000000   0.000000   0.000000  -0.009079   0.053491
   15  C  1 YZ    0.000000   0.000000   0.000000   0.022185   0.011882
   16  C  1  S    0.010315   0.031195  -0.051361   0.000000   0.000000
   17  C  1  X    0.002456   0.002525  -0.007594   0.000000   0.000000
   18  C  1  Y   -0.008615  -0.002912  -0.000264   0.000000   0.000000
   19  C  1  Z    0.000000   0.000000   0.000000   0.002796   0.006476
   20  C  1 XX    0.003914   0.003109  -0.003715   0.000000   0.000000
   21  C  1 YY   -0.011002  -0.001718   0.003907   0.000000   0.000000
   22  C  1 ZZ    0.007088  -0.001391  -0.000192   0.000000   0.000000
   23  C  1 XY    0.007789  -0.008206   0.008139   0.000000   0.000000
   24  C  1 XZ    0.000000   0.000000   0.000000   0.004475  -0.000234
   25  C  1 YZ    0.000000   0.000000   0.000000  -0.022301  -0.002612
   26  O  2  S   -0.015535  -0.000888   0.020878   0.000000   0.000000
   27  O  2  S   -0.166212  -0.016073   0.141948   0.000000   0.000000
   28  O  2  S   -0.236420  -0.035785   0.293015   0.000000   0.000000
   29  O  2  X   -0.120024  -0.167818   0.414262   0.000000   0.000000
   30  O  2  Y   -0.145115   0.182166   0.241349   0.000000   0.000000
   31  O  2  Z    0.000000   0.000000   0.000000   0.247179   0.478662
   32  O  2  X   -0.061944  -0.098269   0.193422   0.000000   0.000000
   33  O  2  Y   -0.077304   0.125835   0.106155   0.000000   0.000000
   34  O  2  Z    0.000000   0.000000   0.000000   0.151060   0.320555
   35  O  2 XX    0.001341   0.012415  -0.013847   0.000000   0.000000
   36  O  2 YY    0.001992  -0.011171   0.002932   0.000000   0.000000
   37  O  2 ZZ   -0.003334  -0.001244   0.010915   0.000000   0.000000
   38  O  2 XY    0.008155  -0.004327  -0.017247   0.000000   0.000000
   39  O  2 XZ    0.000000   0.000000   0.000000  -0.012536  -0.015494
   40  O  2 YZ    0.000000   0.000000   0.000000  -0.007851  -0.009886
   41  O  2  S   -0.044495  -0.006179   0.122774   0.000000   0.000000
   42  O  2  X    0.003387  -0.010102  -0.001841   0.000000   0.000000
   43  O  2  Y    0.007473   0.006897  -0.002278   0.000000   0.000000
   44  O  2  Z    0.000000   0.000000   0.000000   0.007858   0.041852
   45  O  2 XX    0.001836   0.011640   0.003641   0.000000   0.000000
   46  O  2 YY    0.001249  -0.014576  -0.001195   0.000000   0.000000
   47  O  2 ZZ   -0.003085   0.002936  -0.002445   0.000000   0.000000
   48  O  2 XY    0.009092  -0.009146   0.003998   0.000000   0.000000
   49  O  2 XZ    0.000000   0.000000   0.000000  -0.016154  -0.018043
   50  O  2 YZ    0.000000   0.000000   0.000000  -0.007734  -0.011099
   51  O  3  S   -0.014499  -0.014266  -0.006655   0.000000   0.000000
   52  O  3  S   -0.155379  -0.109018  -0.042635   0.000000   0.000000
   53  O  3  S   -0.212272  -0.190823  -0.072375   0.000000   0.000000
   54  O  3  X    0.188022   0.380062   0.130301   0.000000   0.000000
   55  O  3  Y   -0.146999  -0.118194  -0.189891   0.000000   0.000000
   56  O  3  Z    0.000000   0.000000   0.000000   0.488986  -0.403137
   57  O  3  X    0.105510   0.205182   0.069344   0.000000   0.000000
   58  O  3  Y   -0.079774  -0.057807  -0.114808   0.000000   0.000000
   59  O  3  Z    0.000000   0.000000   0.000000   0.330637  -0.291743
   60  O  3 XX    0.004775   0.014247   0.000054   0.000000   0.000000
   61  O  3 YY    0.000108  -0.006239   0.003660   0.000000   0.000000
   62  O  3 ZZ   -0.004883  -0.008008  -0.003713   0.000000   0.000000
   63  O  3 XY   -0.009781  -0.008397  -0.009248   0.000000   0.000000
   64  O  3 XZ    0.000000   0.000000   0.000000   0.014381  -0.003779
   65  O  3 YZ    0.000000   0.000000   0.000000  -0.007849   0.002654
   66  O  3  S   -0.029791  -0.042710  -0.022236   0.000000   0.000000
   67  O  3  X   -0.001631   0.005837   0.000037   0.000000   0.000000
   68  O  3  Y    0.009405  -0.004470  -0.000063   0.000000   0.000000
   69  O  3  Z    0.000000   0.000000   0.000000   0.028966  -0.048651
   70  O  3 XX    0.005109   0.005404  -0.006463   0.000000   0.000000
   71  O  3 YY    0.002276  -0.004020   0.008537   0.000000   0.000000
   72  O  3 ZZ   -0.007386  -0.001384  -0.002074   0.000000   0.000000
   73  O  3 XY   -0.011708   0.001378  -0.008610   0.000000   0.000000
   74  O  3 XZ    0.000000   0.000000   0.000000   0.023649  -0.007034
   75  O  3 YZ    0.000000   0.000000   0.000000  -0.012641   0.006772
   76  H  4  S    0.275211  -0.222718   0.109336   0.000000   0.000000
   77  H  4  S    0.101244  -0.170123   0.093296   0.000000   0.000000
   78  H  4  X   -0.006089  -0.000696  -0.008084   0.000000   0.000000
   79  H  4  Y    0.027549  -0.017175   0.008073   0.000000   0.000000
   80  H  4  Z    0.000000   0.000000   0.000000   0.009101   0.005559
   81  H  4  S   -0.003309  -0.009298   0.012453   0.000000   0.000000
   82  H  4  X   -0.001722  -0.004529  -0.006017   0.000000   0.000000
   83  H  4  Y    0.018877  -0.046765   0.024918   0.000000   0.000000
   84  H  4  Z    0.000000   0.000000   0.000000  -0.013200  -0.001009

                     11         12         13         14         15
                    0.0000     0.0000     0.0000     0.0000     0.0000
                     A          A          A          A          A   
    1  C  1  S    0.006559  -0.000520   0.000000  -0.093062   0.114232
    2  C  1  S    0.021093   0.007643   0.000000  -0.477746   0.480154
    3  C  1  S    0.043104   0.045916   0.000000  -0.428788   0.257702
    4  C  1  X    0.011493  -0.021703   0.000000   0.488829   0.290127
    5  C  1  Y   -0.116740  -0.054359   0.000000  -0.360898   0.096032
    6  C  1  Z    0.000000   0.000000  -0.599875   0.000000   0.000000
    7  C  1  X    0.003780  -0.025776   0.000000   0.136182   0.090912
    8  C  1  Y   -0.039193  -0.079414   0.000000  -0.092301   0.062674
    9  C  1  Z    0.000000   0.000000  -0.277376   0.000000   0.000000
   10  C  1 XX   -0.075831  -0.022987   0.000000  -0.027796   0.179352
   11  C  1 YY    0.067864   0.021547   0.000000   0.014870  -0.172450
   12  C  1 ZZ    0.007968   0.001441   0.000000   0.012927  -0.006902
   13  C  1 XY    0.031146  -0.034665   0.000000   0.024040  -0.054665
   14  C  1 XZ    0.000000   0.000000  -0.014328   0.000000   0.000000
   15  C  1 YZ    0.000000   0.000000  -0.026176   0.000000   0.000000
   16  C  1  S    0.006330  -0.017267   0.000000  -0.098699   0.048358
   17  C  1  X    0.009177  -0.003139   0.000000   0.000992  -0.020253
   18  C  1  Y   -0.019737  -0.005297   0.000000   0.008298   0.056448
   19  C  1  Z    0.000000   0.000000   0.008363   0.000000   0.000000
   20  C  1 XX   -0.022032   0.010468   0.000000  -0.022107   0.080968
   21  C  1 YY    0.023310  -0.013342   0.000000   0.004724  -0.079686
   22  C  1 ZZ   -0.001279   0.002874   0.000000   0.017382  -0.001282
   23  C  1 XY   -0.001086   0.047667   0.000000   0.020911   0.016437
   24  C  1 XZ    0.000000   0.000000  -0.018534   0.000000   0.000000
   25  C  1 YZ    0.000000   0.000000  -0.003243   0.000000   0.000000
   26  O  2  S   -0.000423   0.000045   0.000000   0.009381  -0.019805
   27  O  2  S   -0.014516  -0.019904   0.000000   0.063797  -0.120319
   28  O  2  S   -0.007768  -0.009007   0.000000   0.078095  -0.262367
   29  O  2  X   -0.245943   0.202627   0.000000  -0.311035   0.104476
   30  O  2  Y    0.503437  -0.073048   0.000000   0.164161   0.832407
   31  O  2  Z    0.000000   0.000000   0.640674   0.000000   0.000000
   32  O  2  X   -0.179942   0.097495   0.000000   0.001357   0.231726
   33  O  2  Y    0.334409  -0.047168   0.000000  -0.066743  -0.363070
   34  O  2  Z    0.000000   0.000000   0.064007   0.000000   0.000000
   35  O  2 XX    0.006916  -0.005896   0.000000  -0.008277  -0.022261
   36  O  2 YY   -0.007661   0.004055   0.000000   0.010903   0.023080
   37  O  2 ZZ    0.000745   0.001841   0.000000  -0.002626  -0.000819
   38  O  2 XY   -0.007028  -0.001779   0.000000   0.011520   0.010341
   39  O  2 XZ    0.000000   0.000000   0.006005   0.000000   0.000000
   40  O  2 YZ    0.000000   0.000000   0.002275   0.000000   0.000000
   41  O  2  S    0.026539   0.025084   0.000000   0.019414  -0.211165
   42  O  2  X   -0.045792   0.000388   0.000000   0.021350   0.109555
   43  O  2  Y    0.068064  -0.003924   0.000000  -0.024405  -0.136509
   44  O  2  Z    0.000000   0.000000  -0.033677   0.000000   0.000000
   45  O  2 XX    0.009378  -0.005738   0.000000  -0.035425  -0.048138
   46  O  2 YY   -0.005804   0.007512   0.000000   0.033797   0.049561
   47  O  2 ZZ   -0.003574  -0.001775   0.000000   0.001628  -0.001423
   48  O  2 XY   -0.002106   0.001862   0.000000   0.014627   0.065734
   49  O  2 XZ    0.000000   0.000000   0.032117   0.000000   0.000000
   50  O  2 YZ    0.000000   0.000000   0.008532   0.000000   0.000000
   51  O  3  S    0.002999  -0.000301   0.000000   0.062394  -0.001994
   52  O  3  S   -0.028190   0.002018   0.000000   0.293884   0.007469
   53  O  3  S   -0.021880   0.015466   0.000000   0.289843  -0.011854
   54  O  3  X   -0.155964   0.343624   0.000000   0.629656  -0.086270
   55  O  3  Y    0.174012   0.569305   0.000000  -0.306736   0.140039
   56  O  3  Z    0.000000   0.000000   0.316995   0.000000   0.000000
   57  O  3  X   -0.095810   0.229084   0.000000   0.126295   0.028384
   58  O  3  Y    0.104524   0.387276   0.000000  -0.022445  -0.009410
   59  O  3  Z    0.000000   0.000000   0.064070   0.000000   0.000000
   60  O  3 XX   -0.002572   0.009761   0.000000  -0.007851  -0.002751
   61  O  3 YY    0.001040  -0.009206   0.000000   0.017980  -0.006136
   62  O  3 ZZ    0.001532  -0.000555   0.000000  -0.010129   0.008888
   63  O  3 XY    0.004090   0.006409   0.000000   0.018638  -0.011957
   64  O  3 XZ    0.000000   0.000000  -0.008347   0.000000   0.000000
   65  O  3 YZ    0.000000   0.000000   0.000575   0.000000   0.000000
   66  O  3  S    0.025064   0.017522   0.000000   0.137890  -0.073639
   67  O  3  X   -0.010795   0.020714   0.000000   0.019566   0.020601
   68  O  3  Y    0.016108   0.028271   0.000000  -0.004735  -0.023294
   69  O  3  Z    0.000000   0.000000  -0.000669   0.000000   0.000000
   70  O  3 XX   -0.003877   0.020752   0.000000  -0.020153   0.010563
   71  O  3 YY    0.005803  -0.022143   0.000000   0.010574  -0.018106
   72  O  3 ZZ   -0.001926   0.001391   0.000000   0.009580   0.007543
   73  O  3 XY   -0.001096   0.014129   0.000000   0.026467  -0.007289
   74  O  3 XZ    0.000000   0.000000  -0.022955   0.000000   0.000000
   75  O  3 YZ    0.000000   0.000000   0.006453   0.000000   0.000000
   76  H  4  S    0.218851   0.079172   0.000000   0.087328  -0.201517
   77  H  4  S    0.128850  -0.013592   0.000000   0.096440  -0.148702
   78  H  4  X    0.001947  -0.001964   0.000000   0.013990   0.007961
   79  H  4  Y    0.007374   0.001214   0.000000   0.004690   0.019763
   80  H  4  Z    0.000000   0.000000  -0.017570   0.000000   0.000000
   81  H  4  S    0.003496   0.004276   0.000000   0.020311  -0.004514
   82  H  4  X   -0.021374   0.042634   0.000000   0.012854   0.057359
   83  H  4  Y   -0.000788  -0.021719   0.000000   0.035586   0.019641
   84  H  4  Z    0.000000   0.000000   0.010577   0.000000   0.000000

                     16         17         18         19         20
                    0.0000     0.0000     0.0000     0.0000     0.0000
                     A          A          A          A          A   
    1  C  1  S    0.024138  -0.016856  -0.002087   0.000000  -0.000410
    2  C  1  S    0.133160  -0.017370  -0.013644   0.000000  -0.025080
    3  C  1  S    0.220658   0.652696  -0.213132   0.000000  -0.205671
    4  C  1  X    0.705902   0.011660  -0.003896   0.000000  -0.000041
    5  C  1  Y    0.346072  -0.048317   0.020431   0.000000   0.070617
    6  C  1  Z    0.000000   0.000000   0.000000  -0.113321   0.000000
    7  C  1  X    0.247329   0.056452  -0.534895   0.000000   0.535711
    8  C  1  Y    0.100041  -0.105400  -0.574654   0.000000  -0.550112
    9  C  1  Z    0.000000   0.000000   0.000000  -0.105393   0.000000
   10  C  1 XX   -0.146385   0.001160  -0.012055   0.000000  -0.024922
   11  C  1 YY    0.134328   0.007521   0.003532   0.000000   0.016011
   12  C  1 ZZ    0.012057  -0.008681   0.008523   0.000000   0.008912
   13  C  1 XY    0.092342   0.003213  -0.018593   0.000000   0.018074
   14  C  1 XZ    0.000000   0.000000   0.000000  -0.000927   0.000000
   15  C  1 YZ    0.000000   0.000000   0.000000  -0.011590   0.000000
   16  C  1  S    0.089441   4.434874  -1.252447   0.000000  -1.110503
   17  C  1  X    0.037653   0.143301  -1.666502   0.000000   1.576001
   18  C  1  Y   -0.040120  -0.966018  -1.447648   0.000000  -1.790447
   19  C  1  Z    0.000000   0.000000   0.000000   1.838873   0.000000
   20  C  1 XX   -0.039481   0.043184  -0.071333   0.000000  -0.057197
   21  C  1 YY    0.046916   0.056178   0.047404   0.000000   0.025938
   22  C  1 ZZ   -0.007435  -0.099363   0.023929   0.000000   0.031259
   23  C  1 XY    0.021267   0.015947  -0.181594   0.000000   0.112191
   24  C  1 XZ    0.000000   0.000000   0.000000   0.018002   0.000000
   25  C  1 YZ    0.000000   0.000000   0.000000  -0.002708   0.000000
   26  O  2  S   -0.095041   0.005083  -0.009014   0.000000  -0.001267
   27  O  2  S   -0.349837   0.019960   0.029069   0.000000   0.001620
   28  O  2  S   -0.264104  -0.052397   0.337214   0.000000  -0.029220
   29  O  2  X    0.739533   0.017010   0.046131   0.000000   0.011093
   30  O  2  Y   -0.002395  -0.022962   0.019177   0.000000  -0.015445
   31  O  2  Z    0.000000   0.000000   0.000000  -0.012582   0.000000
   32  O  2  X   -0.089786   0.058856  -0.172909   0.000000  -0.035007
   33  O  2  Y    0.259693   0.029905  -0.099293   0.000000   0.006504
   34  O  2  Z    0.000000   0.000000   0.000000   0.032724   0.000000
   35  O  2 XX    0.014497  -0.000892   0.003081   0.000000  -0.001108
   36  O  2 YY   -0.008943   0.001878   0.000608   0.000000   0.000938
   37  O  2 ZZ   -0.005554  -0.000986  -0.003689   0.000000   0.000171
[...]
   84  H  4  Z    0.217489  -0.000000  -0.324149  -0.000000  -0.052945

                     76         77         78
                    3.8326     3.9608     4.0461
                     A          A          A   
    1  C  1  S    0.100104  -0.040427  -0.222531
    2  C  1  S    0.329659  -0.034502  -0.614411
    3  C  1  S    2.864956  -1.390359  -3.480117
    4  C  1  X   -0.240361  -0.028701  -0.584535
    5  C  1  Y    0.136489   0.246761  -0.403277
    6  C  1  Z   -0.000000  -0.000000  -0.000000
    7  C  1  X   -1.336129  -0.727732  -2.095097
    8  C  1  Y    0.613447   1.236057  -1.896865
    9  C  1  Z   -0.000000  -0.000000  -0.000000
   10  C  1 XX    0.129361   0.863567  -0.318593
   11  C  1 YY    0.218696  -0.871705  -0.145940
   12  C  1 ZZ   -0.348056   0.008137   0.464533
   13  C  1 XY   -0.488177  -0.313936  -0.621813
   14  C  1 XZ   -0.000000  -0.000000  -0.000000
   15  C  1 YZ   -0.000000  -0.000000  -0.000000
   16  C  1  S    0.922491  -0.800893  -1.145314
   17  C  1  X   -0.168427  -0.134583  -0.241484
   18  C  1  Y   -0.077523   0.421314  -0.149332
   19  C  1  Z   -0.000000  -0.000000  -0.000000
   20  C  1 XX    0.513884   0.286994  -0.462979
   21  C  1 YY   -0.283001  -0.367890   0.128542
   22  C  1 ZZ   -0.230884   0.080896   0.334438
   23  C  1 XY   -0.478991  -0.111839  -0.821190
   24  C  1 XZ   -0.000000  -0.000000  -0.000000
   25  C  1 YZ   -0.000000  -0.000000  -0.000000
   26  O  2  S    0.200985  -0.036155  -0.486026
   27  O  2  S    0.400484  -0.074778  -0.912038
   28  O  2  S   -0.645563   0.126039   4.422722
   29  O  2  X   -0.113768  -0.006041  -0.141025
   30  O  2  Y   -0.093156   0.084976  -0.071181
   31  O  2  Z   -0.000000  -0.000000  -0.000000
   32  O  2  X    0.519267  -0.194976  -1.649982
   33  O  2  Y    0.423514   0.194701  -0.905299
   34  O  2  Z   -0.000000  -0.000000  -0.000000
   35  O  2 XX   -0.226424   0.709599   0.850625
   36  O  2 YY    0.153471  -0.754983  -0.145018
   37  O  2 ZZ    0.072953   0.045384  -0.705607
   38  O  2 XY    0.299190  -0.552739   0.866154
   39  O  2 XZ   -0.000000  -0.000000  -0.000000
   40  O  2 YZ   -0.000000  -0.000000  -0.000000
   41  O  2  S   -0.423314   0.282448   2.459133
   42  O  2  X    0.073409   0.075349  -0.225101
   43  O  2  Y    0.167112  -0.314942  -0.161783
   44  O  2  Z   -0.000000  -0.000000  -0.000000
   45  O  2 XX   -0.042392  -0.216881  -0.215432
   46  O  2 YY   -0.164531   0.250702  -0.015721
   47  O  2 ZZ    0.206923  -0.033821   0.231153
   48  O  2 XY   -0.308054   0.197796  -0.171611
   49  O  2 XZ   -0.000000  -0.000000  -0.000000
   50  O  2 YZ   -0.000000  -0.000000  -0.000000
   51  O  3  S    0.361978   0.025692  -0.120625
   52  O  3  S    0.688782   0.018395  -0.239821
   53  O  3  S   -2.682019  -0.867582   0.386500
   54  O  3  X   -0.043006  -0.163715  -0.084030
   55  O  3  Y   -0.005617   0.060009   0.035347
   56  O  3  Z   -0.000000  -0.000000  -0.000000
   57  O  3  X   -1.096952  -0.115173   0.430559
   58  O  3  Y    0.501436   0.361529  -0.256041
   59  O  3  Z   -0.000000  -0.000000  -0.000000
   60  O  3 XX   -1.067706  -0.167933  -0.079574
   61  O  3 YY    0.390375  -0.130786   0.078748
   62  O  3 ZZ    0.677331   0.298719   0.000826
   63  O  3 XY    0.377075   0.652993  -0.022488
   64  O  3 XZ   -0.000000  -0.000000  -0.000000
   65  O  3 YZ   -0.000000  -0.000000  -0.000000
   66  O  3  S   -1.163427  -0.193990   0.166021
   67  O  3  X   -0.003901   0.085294   0.017486
   68  O  3  Y    0.144134  -0.109523  -0.003186
   69  O  3  Z   -0.000000  -0.000000  -0.000000
   70  O  3 XX    0.394724   0.260542   0.177843
   71  O  3 YY   -0.102752  -0.016864   0.013133
   72  O  3 ZZ   -0.291972  -0.243678  -0.190975
   73  O  3 XY   -0.062238  -0.176580  -0.084589
   74  O  3 XZ   -0.000000  -0.000000  -0.000000
   75  O  3 YZ   -0.000000  -0.000000  -0.000000
   76  H  4  S   -0.275735   0.869900   0.248970
   77  H  4  S   -0.093640   1.803483  -0.872349
   78  H  4  X   -0.127143   0.013743  -0.110323
   79  H  4  Y   -0.235427   0.396770   0.251896
   80  H  4  Z   -0.000000  -0.000000  -0.000000
   81  H  4  S   -0.189604   0.364652   0.118078
   82  H  4  X    0.018971   0.141440  -0.132177
   83  H  4  Y   -0.070453   0.399238  -0.262624
   84  H  4  Z   -0.000000  -0.000000  -0.000000

 CI EIGENVECTORS WILL BE LABELED IN GROUP=C1      
 PRINTING CI COEFFICIENTS LARGER THAN  0.050000

 STATE   1  ENERGY=      -188.3055901373  S=  0.50  SZ=  0.50  SPACE SYM=A   

    ALPHA      |    BETA       | COEFFICIENT
---------------|---------------|------------
 1111111110000 | 1111111100000 |   0.9574534
 1111110111000 | 1111110101000 |   0.0992483
 1111111110000 | 1111111010000 |  -0.0518654

     ----------------------------------------------------------------
     PROPERTY VALUES FOR THE MCSCF SELF-CONSISTENT FIELD WAVEFUNCTION
     ----------------------------------------------------------------

          -----------------
          ENERGY COMPONENTS
          -----------------

         WAVEFUNCTION NORMALIZATION =       1.0000000000

                ONE ELECTRON ENERGY =    -380.6814113471
                TWO ELECTRON ENERGY =     130.3691699717
           NUCLEAR REPULSION ENERGY =      62.0066512381
                                      ------------------
                       TOTAL ENERGY =    -188.3055901373

 ELECTRON-ELECTRON POTENTIAL ENERGY =     130.3691699717
  NUCLEUS-ELECTRON POTENTIAL ENERGY =    -568.8307711461
   NUCLEUS-NUCLEUS POTENTIAL ENERGY =      62.0066512381
                                      ------------------
             TOTAL POTENTIAL ENERGY =    -376.4549499363
               TOTAL KINETIC ENERGY =     188.1493597990
                 VIRIAL RATIO (V/T) =       2.0008303528

          ---------------------------------------
          MULLIKEN AND LOWDIN POPULATION ANALYSES
          ---------------------------------------

     ATOMIC MULLIKEN POPULATION IN EACH MOLECULAR ORBITAL

                      1          2          3          4          5

                  2.000000   2.000000   2.000000   1.998514   1.997660

    1             0.002482   0.002540   2.002522  -0.097625  -0.058061
    2             0.000307   1.996998  -0.001524   0.006968   2.041141
    3             1.997228   0.000357  -0.001639   2.017594  -0.000276
    4            -0.000016   0.000105   0.000641   0.071576   0.014856

                      6          7          8          9         10

                  1.996955   1.987201   1.979004   1.976694   1.966852

    1             0.862771   0.263129   0.717410   0.603450   0.340830
    2             0.047633   0.015385   0.399628   1.346669   1.121391
    3             0.126924   1.711667   0.886811   0.008127   0.493051
    4             0.959627  -0.002981  -0.024846   0.018448   0.011580

                     11         12         13         14         15

                  1.947704   1.007725   0.066505   0.034623   0.024852

    1             0.446918  -0.019202   0.032869   0.016366   0.011617
    2             1.387159   0.043204   0.026540   0.008230   0.012330
    3             0.117176   0.964241   0.007059   0.010125   0.000247
    4            -0.003548   0.019481   0.000037  -0.000099   0.000658

                     16

                  0.015713

    1             0.005082
    2             0.006301
    3             0.003161
    4             0.001168
 WARNING! MCSCF POPULATIONS SHOWN ABOVE ARE FOR THE NATURAL ORBITALS.
 IGNORE THE ABOVE DATA FOR MCSCF FUNCTIONS WHICH ARE NOT OF -FORS- TYPE.
 THE FOLLOWING POPULATIONS ARE CORRECT FOR ANY MCSCF WAVEFUNCTION.

               ----- POPULATIONS IN EACH AO -----
                             MULLIKEN      LOWDIN
              1  C  1  S      2.00723     1.76575
              2  C  1  S      0.69671     0.47042
              3  C  1  S      0.19947     0.18315
              4  C  1  X      0.69187     0.59191
              5  C  1  Y      0.73350     0.61122
              6  C  1  Z      0.48438     0.40002
              7  C  1  X     -0.03941     0.18604
              8  C  1  Y      0.01558     0.26877
              9  C  1  Z      0.21161     0.21489
             10  C  1 XX      0.00675     0.22709
             11  C  1 YY      0.09906     0.20267
             12  C  1 ZZ      0.05630     0.05469
             13  C  1 XY      0.04643     0.10766
             14  C  1 XZ      0.00908     0.09310
             15  C  1 YZ      0.00000     0.01389
             16  C  1  S     -0.04147     0.05077
             17  C  1  X     -0.00391     0.02627
             18  C  1  Y     -0.00117     0.02057
             19  C  1  Z      0.00280     0.01650
             20  C  1 XX     -0.00535     0.16594
             21  C  1 YY      0.01356     0.15757
             22  C  1 ZZ     -0.03853     0.00672
             23  C  1 XY     -0.00169     0.14933
             24  C  1 XZ     -0.00970     0.14562
             25  C  1 YZ      0.00000     0.01922
             26  O  2  S      2.00378     1.86728
             27  O  2  S      0.85507     0.62693
             28  O  2  S      1.00758     0.37655
             29  O  2  X      0.92519     0.85966
             30  O  2  Y      1.02632     0.96636
             31  O  2  Z      0.82099     0.76202
             32  O  2  X      0.45825     0.49812
             33  O  2  Y      0.58596     0.54097
             34  O  2  Z      0.55556     0.48099
             35  O  2 XX      0.00223     0.17842
             36  O  2 YY      0.00443     0.16948
             37  O  2 ZZ      0.00648     0.16529
             38  O  2 XY      0.00395     0.00926
             39  O  2 XZ      0.00163     0.00377
             40  O  2 YZ      0.00000     0.00143
             41  O  2  S      0.10018     0.07633
             42  O  2  X      0.01644     0.06838
             43  O  2  Y      0.02125     0.06195
             44  O  2  Z      0.03052     0.05610
             45  O  2 XX      0.00125     0.08623
             46  O  2 YY      0.00945     0.05994
             47  O  2 ZZ      0.00542     0.03629
             48  O  2 XY      0.01232     0.04997
             49  O  2 XZ      0.00411     0.02447
             50  O  2 YZ      0.00000     0.01023
             51  O  3  S      2.00346     1.87340
             52  O  3  S      0.88832     0.65807
             53  O  3  S      1.05461     0.39533
             54  O  3  X      0.85665     0.79763
             55  O  3  Y      0.72341     0.68760
             56  O  3  Z      1.08304     1.03127
             57  O  3  X      0.45255     0.46067
             58  O  3  Y      0.40516     0.35928
             59  O  3  Z      0.70741     0.59238
             60  O  3 XX      0.00154     0.18354
             61  O  3 YY      0.00303     0.17598
             62  O  3 ZZ      0.00409     0.17698
             63  O  3 XY      0.00203     0.00494
             64  O  3 XZ      0.00054     0.00186
             65  O  3 YZ      0.00000     0.00047
             66  O  3  S      0.09682     0.08035
             67  O  3  X      0.00115     0.05643
             68  O  3  Y     -0.00200     0.04176
             69  O  3  Z      0.03218     0.05605
             70  O  3 XX      0.00295     0.08719
             71  O  3 YY      0.00646     0.05283
             72  O  3 ZZ      0.00776     0.03822
             73  O  3 XY      0.00865     0.04404
             74  O  3 XZ      0.00206     0.02589
             75  O  3 YZ      0.00000     0.00623
             76  H  4  S      0.75482     0.53779
             77  H  4  S      0.28569     0.17313
             78  H  4  X      0.00262     0.00649
             79  H  4  Y      0.02493     0.04392
             80  H  4  Z      0.00355     0.00840
             81  H  4  S      0.00703     0.02419
             82  H  4  X      0.00611     0.03053
             83  H  4  Y     -0.00802     0.06432
             84  H  4  Z     -0.01005     0.03660

          ----- MULLIKEN ATOMIC OVERLAP POPULATIONS -----
          (OFF-DIAGONAL ELEMENTS NEED TO BE MULTIPLIED BY 2)

             1           2           3           4

    1    4.2714445
    2    0.4087041   8.1255026
    3    0.1468941  -0.0430764   8.2698625
    4    0.3060561  -0.0327698  -0.0318280   0.8252300

          TOTAL MULLIKEN AND LOWDIN ATOMIC POPULATIONS
       ATOM         MULL.POP.    CHARGE          LOW.POP.     CHARGE
    1 C             5.133099    0.866901         6.149767   -0.149767
    2 O             8.458361   -0.458361         8.036446   -0.036446
    3 O             8.341852   -0.341852         7.888405    0.111595
    4 H             1.066688   -0.066688         0.925381    0.074619

          MULLIKEN SPHERICAL HARMONIC POPULATIONS
       ATOM           S       P       D      F      G      H      I    TOTAL
    1 C             2.86    2.10    0.18   0.00   0.00   0.00   0.00    5.13
    2 O             3.97    4.44    0.05   0.00   0.00   0.00   0.00    8.46
    3 O             4.04    4.26    0.04   0.00   0.00   0.00   0.00    8.34
    4 H             1.05    0.02    0.00   0.00   0.00   0.00   0.00    1.07

          ---------------------
          ELECTROSTATIC MOMENTS
          ---------------------

 POINT   1           X           Y           Z (BOHR)    CHARGE
                 0.000000   -0.000000    0.000000       -0.00 (A.U.)
         DX          DY          DZ         /D/  (DEBYE)
    -1.078741   -2.015333    0.000000    2.285881
 ...... END OF PROPERTY EVALUATION ......
 CPU     0: STEP CPU TIME=     0.21 TOTAL CPU TIME=     1427.2 (   23.8 MIN)
 TOTAL WALL CLOCK TIME=     1574.3 SECONDS, CPU UTILIZATION IS  90.65%
  $VIB   
          IVIB=   0 IATOM=   0 ICOORD=   0 E=     -188.3055901373
  6.821899054E-06-1.776457596E-05 0.000000000E+00 5.708165550E-07 6.742009652E-06
  0.000000000E+00-6.450286383E-07-1.309056157E-06 0.000000000E+00-6.747686971E-06
  1.233162246E-05 0.000000000E+00
 -1.078741188E+00-2.015333115E+00 0.000000000E+00
 ......END OF GEOMETRY SEARCH......
 CPU     0: STEP CPU TIME=     0.00 TOTAL CPU TIME=     1427.2 (   23.8 MIN)
 TOTAL WALL CLOCK TIME=     1574.3 SECONDS, CPU UTILIZATION IS  90.65%
             19566286  WORDS OF DYNAMIC MEMORY USED
 EXECUTION OF GAMESS TERMINATED NORMALLY Thu Jun  2 13:54:12 2011
 DDI: 263624 bytes (0.3 MB / 0 MWords) used by master data server.

 ----------------------------------------
 CPU timing information for all processes
 ========================================
 0: 1374.810 + 52.430 = 1427.240
 1: 1370.300 + 29.130 = 1399.430
 2: 1374.220 + 39.400 = 1413.620
 3: 1377.660 + 30.180 = 1407.840
 4: 1375.480 + 48.720 = 1424.200
 5: 1371.400 + 30.520 = 1401.920
 6: 1370.920 + 40.230 = 1411.150
 7: 1364.20 + 25.370 = 1389.390
 8: 1364.960 + 47.850 = 1412.810
 9: 1367.350 + 21.120 = 1388.470
 10: 1364.740 + 31.570 = 1396.310
 11: 1363.480 + 21.590 = 1385.70
 12: 1356.650 + 39.860 = 1396.510
 13: 1368.680 + 21.180 = 1389.860
 14: 1360.780 + 31.810 = 1392.590
 15: 1360.960 + 19.490 = 1380.450
 ----------------------------------------
 ddikick.x: exited gracefully.
----- accounting info -----
Files used on the master node kenan were:
-rw-r--r-- 1 andrewhoos andrewhoos   106737 2011-06-02 13:27 /scr/andrewhoos/scan1.F05
-rw-r--r-- 1 andrewhoos andrewhoos 39243488 2011-06-02 13:51 /scr/andrewhoos/scan1.F08
-rw-r--r-- 1 andrewhoos andrewhoos 39243488 2011-06-02 13:51 /scr/andrewhoos/scan1.F08.001
-rw-r--r-- 1 andrewhoos andrewhoos 39243488 2011-06-02 13:51 /scr/andrewhoos/scan1.F08.002
-rw-r--r-- 1 andrewhoos andrewhoos 39243488 2011-06-02 13:51 /scr/andrewhoos/scan1.F08.003
-rw-r--r-- 1 andrewhoos andrewhoos 39243488 2011-06-02 13:51 /scr/andrewhoos/scan1.F08.004
-rw-r--r-- 1 andrewhoos andrewhoos 39243488 2011-06-02 13:51 /scr/andrewhoos/scan1.F08.005
-rw-r--r-- 1 andrewhoos andrewhoos 39243488 2011-06-02 13:51 /scr/andrewhoos/scan1.F08.006
-rw-r--r-- 1 andrewhoos andrewhoos 39243488 2011-06-02 13:51 /scr/andrewhoos/scan1.F08.007
-rw-r--r-- 1 andrewhoos andrewhoos 39243488 2011-06-02 13:51 /scr/andrewhoos/scan1.F08.008
-rw-r--r-- 1 andrewhoos andrewhoos 39243488 2011-06-02 13:51 /scr/andrewhoos/scan1.F08.009
-rw-r--r-- 1 andrewhoos andrewhoos 39243488 2011-06-02 13:51 /scr/andrewhoos/scan1.F08.010
-rw-r--r-- 1 andrewhoos andrewhoos 39243488 2011-06-02 13:51 /scr/andrewhoos/scan1.F08.011
-rw-r--r-- 1 andrewhoos andrewhoos 39243488 2011-06-02 13:51 /scr/andrewhoos/scan1.F08.012
-rw-r--r-- 1 andrewhoos andrewhoos 39243488 2011-06-02 13:51 /scr/andrewhoos/scan1.F08.013
-rw-r--r-- 1 andrewhoos andrewhoos 39243488 2011-06-02 13:51 /scr/andrewhoos/scan1.F08.014
-rw-r--r-- 1 andrewhoos andrewhoos 39243488 2011-06-02 13:51 /scr/andrewhoos/scan1.F08.015
-rw-r--r-- 1 andrewhoos andrewhoos   208584 2011-06-02 13:53 /scr/andrewhoos/scan1.F09
-rw-r--r-- 1 andrewhoos andrewhoos   180016 2011-06-02 13:53 /scr/andrewhoos/scan1.F09.001
-rw-r--r-- 1 andrewhoos andrewhoos   180016 2011-06-02 13:53 /scr/andrewhoos/scan1.F09.002
-rw-r--r-- 1 andrewhoos andrewhoos   180016 2011-06-02 13:53 /scr/andrewhoos/scan1.F09.003
-rw-r--r-- 1 andrewhoos andrewhoos   180016 2011-06-02 13:53 /scr/andrewhoos/scan1.F09.004
-rw-r--r-- 1 andrewhoos andrewhoos   180016 2011-06-02 13:53 /scr/andrewhoos/scan1.F09.005
-rw-r--r-- 1 andrewhoos andrewhoos   180016 2011-06-02 13:53 /scr/andrewhoos/scan1.F09.006
-rw-r--r-- 1 andrewhoos andrewhoos   180016 2011-06-02 13:53 /scr/andrewhoos/scan1.F09.007
-rw-r--r-- 1 andrewhoos andrewhoos   180016 2011-06-02 13:53 /scr/andrewhoos/scan1.F09.008
-rw-r--r-- 1 andrewhoos andrewhoos   180016 2011-06-02 13:53 /scr/andrewhoos/scan1.F09.009
-rw-r--r-- 1 andrewhoos andrewhoos   180016 2011-06-02 13:53 /scr/andrewhoos/scan1.F09.010
-rw-r--r-- 1 andrewhoos andrewhoos   180016 2011-06-02 13:53 /scr/andrewhoos/scan1.F09.011
-rw-r--r-- 1 andrewhoos andrewhoos   180016 2011-06-02 13:53 /scr/andrewhoos/scan1.F09.012
-rw-r--r-- 1 andrewhoos andrewhoos   180016 2011-06-02 13:53 /scr/andrewhoos/scan1.F09.013
-rw-r--r-- 1 andrewhoos andrewhoos   180016 2011-06-02 13:53 /scr/andrewhoos/scan1.F09.014
-rw-r--r-- 1 andrewhoos andrewhoos   180016 2011-06-02 13:53 /scr/andrewhoos/scan1.F09.015
-rw-r--r-- 1 andrewhoos andrewhoos  1865040 2011-06-02 13:54 /scr/andrewhoos/scan1.F10
-rw-r--r-- 1 andrewhoos andrewhoos  7361672 2011-06-02 13:54 /scr/andrewhoos/scan1.F12
-rw-r--r-- 1 andrewhoos andrewhoos  1745816 2011-06-02 13:54 /scr/andrewhoos/scan1.F13
-rw-r--r-- 1 andrewhoos andrewhoos  1745816 2011-06-02 13:54 /scr/andrewhoos/scan1.F13.001
-rw-r--r-- 1 andrewhoos andrewhoos  1745816 2011-06-02 13:54 /scr/andrewhoos/scan1.F13.002
-rw-r--r-- 1 andrewhoos andrewhoos  1745816 2011-06-02 13:54 /scr/andrewhoos/scan1.F13.003
-rw-r--r-- 1 andrewhoos andrewhoos  1745816 2011-06-02 13:54 /scr/andrewhoos/scan1.F13.004
-rw-r--r-- 1 andrewhoos andrewhoos  1745816 2011-06-02 13:54 /scr/andrewhoos/scan1.F13.005
-rw-r--r-- 1 andrewhoos andrewhoos  1745816 2011-06-02 13:54 /scr/andrewhoos/scan1.F13.006
-rw-r--r-- 1 andrewhoos andrewhoos  1745816 2011-06-02 13:54 /scr/andrewhoos/scan1.F13.007
-rw-r--r-- 1 andrewhoos andrewhoos  1745816 2011-06-02 13:54 /scr/andrewhoos/scan1.F13.008
-rw-r--r-- 1 andrewhoos andrewhoos  1745816 2011-06-02 13:54 /scr/andrewhoos/scan1.F13.009
-rw-r--r-- 1 andrewhoos andrewhoos  1745816 2011-06-02 13:54 /scr/andrewhoos/scan1.F13.010
-rw-r--r-- 1 andrewhoos andrewhoos  1745816 2011-06-02 13:54 /scr/andrewhoos/scan1.F13.011
-rw-r--r-- 1 andrewhoos andrewhoos  1745816 2011-06-02 13:54 /scr/andrewhoos/scan1.F13.012
-rw-r--r-- 1 andrewhoos andrewhoos  1745816 2011-06-02 13:54 /scr/andrewhoos/scan1.F13.013
-rw-r--r-- 1 andrewhoos andrewhoos  1745816 2011-06-02 13:54 /scr/andrewhoos/scan1.F13.014
-rw-r--r-- 1 andrewhoos andrewhoos  1745816 2011-06-02 13:54 /scr/andrewhoos/scan1.F13.015
-rw-r--r-- 1 andrewhoos andrewhoos   181112 2011-06-02 13:54 /scr/andrewhoos/scan1.F15
-rw-r--r-- 1 andrewhoos andrewhoos   123840 2011-06-02 13:54 /scr/andrewhoos/scan1.F23
Thu Jun  2 13:54:15 CDT 2011
0.2u 0.2s 26:17.84 0.0% 0+0k 0+232io 0pf+0w
