----- GAMESS execution script 'rungms' -----
This job is running on host macs-imac.sh1.students.letnet.net
under operating system Darwin at Mon May 14 17:53:17 CDT 2012
Available scratch disk space (Kbyte units) at beginning of the job is
Filesystem   1024-blocks      Used Available Capacity  Mounted on
/dev/disk0s2   730499096 112620440 617622656    16%    /
Copying input file test1.inp to your run's scratch directory...

 Distributed Data Interface kickoff program.
 Initiating 4 compute processes on 4 nodes to run the following command:
 /Users/mac/Desktop/gamess/gamess.Aug112011R1.x test1 

          ******************************************************
          *         GAMESS VERSION = 11 AUG 2011 (R1)          *
          *             FROM IOWA STATE UNIVERSITY             *
          * M.W.SCHMIDT, K.K.BALDRIDGE, J.A.BOATZ, S.T.ELBERT, *
          *   M.S.GORDON, J.H.JENSEN, S.KOSEKI, N.MATSUNAGA,   *
          *          K.A.NGUYEN, S.J.SU, T.L.WINDUS,           *
          *       TOGETHER WITH M.DUPUIS, J.A.MONTGOMERY       *
          *         J.COMPUT.CHEM.  14, 1347-1363(1993)        *
          **************** 64 BIT LINUX VERSION ****************

  SINCE 1993, STUDENTS AND POSTDOCS WORKING AT IOWA STATE UNIVERSITY
  AND ALSO IN THEIR VARIOUS JOBS AFTER LEAVING ISU HAVE MADE IMPORTANT
  CONTRIBUTIONS TO THE CODE:
     IVANA ADAMOVIC, CHRISTINE AIKENS, YURI ALEXEEV, POOJA ARORA,
     ANDREY ASADCHEV, ROB BELL, PRADIPTA BANDYOPADHYAY, JONATHAN BENTZ,
     BRETT BODE, GALINA CHABAN, WEI CHEN, CHEOL HO CHOI, PAUL DAY,
     ALBERT DEFUSCO, TIM DUDLEY, DMITRI FEDOROV, GRAHAM FLETCHER,
     MARK FREITAG, KURT GLAESEMANN, DAN KEMP, GRANT MERRILL,
     NORIYUKI MINEZAWA, JONATHAN MULLIN, TAKESHI NAGATA,
     SEAN NEDD, HEATHER NETZLOFF, BOSILJKA NJEGIC, RYAN OLSON, MIKE PAK,
     JIM SHOEMAKER, LYUDMILA SLIPCHENKO, SAROM SOK, JIE SONG,
     TETSUYA TAKETSUGU, SIMON WEBB, SOOHAENG YOO, FEDERICO ZAHARIEV

  ADDITIONAL CODE HAS BEEN PROVIDED BY COLLABORATORS IN OTHER GROUPS:
     IOWA STATE UNIVERSITY:
          JOE IVANIC, LAIMUTIS BYTAUTAS, KLAUS RUEDENBERG
     UNIVERSITY OF TOKYO: KIMIHIKO HIRAO, TAKAHITO NAKAJIMA,
          TAKAO TSUNEDA, MUNEAKI KAMIYA, SUSUMU YANAGISAWA,
          KIYOSHI YAGI, MAHITO CHIBA, SEIKEN TOKURA, NAOAKI KAWAKAMI
     UNIVERSITY OF AARHUS: FRANK JENSEN
     UNIVERSITY OF IOWA: VISVALDAS KAIRYS, HUI LI
     NATIONAL INST. OF STANDARDS AND TECHNOLOGY: WALT STEVENS, DAVID GARMER
     UNIVERSITY OF PISA: BENEDETTA MENNUCCI, JACOPO TOMASI
     UNIVERSITY OF MEMPHIS: HENRY KURTZ, PRAKASHAN KORAMBATH
     UNIVERSITY OF ALBERTA: TOBY ZENG, MARIUSZ KLOBUKOWSKI
     UNIVERSITY OF NEW ENGLAND: MARK SPACKMAN
     MIE UNIVERSITY: HIROAKI UMEDA
     MICHIGAN STATE UNIVERSITY:
          KAROL KOWALSKI, MARTA WLOCH, JEFFREY GOUR, JESSE LUTZ, PIOTR PIECUCH
     UNIVERSITY OF SILESIA: MONIKA MUSIAL, STANISLAW KUCHARSKI
     FACULTES UNIVERSITAIRES NOTRE-DAME DE LA PAIX:
          OLIVIER QUINET, BENOIT CHAMPAGNE
     UNIVERSITY OF CALIFORNIA - SANTA BARBARA: BERNARD KIRTMAN
     INSTITUTE FOR MOLECULAR SCIENCE:
          KAZUYA ISHIMURA, MICHIO KATOUDA, AND SHIGERU NAGASE
     UNIVERSITY OF NOTRE DAME: DAN CHIPMAN
     KYUSHU UNIVERSITY:
          HARUYUKI NAKANO,
          FENG LONG GU, JACEK KORCHOWIEC, MARCIN MAKOWSKI, AND YURIKO AOKI,
          HIROTOSHI MORI AND EISAKU MIYOSHI
     PENNSYLVANIA STATE UNIVERSITY:
          TZVETELIN IORDANOV, CHET SWALINA, JONATHAN SKONE,
          SHARON HAMMES-SCHIFFER
     WASEDA UNIVERSITY:
          MASATO KOBAYASHI, TOMOKO AKAMA, TSUGUKI TOUMA,
          TAKESHI YOSHIKAWA, YASUHIRO IKABATA, HIROMI NAKAI
     UNIVERSITY OF NEBRASKA:
          PEIFENG SU, DEJUN SI, NANDUN THELLAMUREGE, YALI WANG, HUI LI
     UNIVERSITY OF ZURICH:
          ROBERTO PEVERATI, KIM BALDRIDGE
     N. COPERNICUS UNIVERSITY AND JACKSON STATE UNIVERSITY:
          MARIA BARYSZ


 PARALLEL VERSION RUNNING ON     4 PROCESSORS IN     4 NODES.

 EXECUTION OF GAMESS BEGUN Mon May 14 17:53:17 2012

            ECHO OF THE FIRST FEW INPUT CARDS -
 INPUT CARD>!   File created by MacMolPlt 7.4.2                                             
 INPUT CARD> $CONTRL SCFTYP=MCSCF RUNTYP=OPTIMIZE MAXIT=30 MULT=2 ISPHER=1 COORD=ZMT        
 INPUT CARD>    NOSYM=1 NZVAR=6 $END                                                        
 INPUT CARD> $SYSTEM TIMLIM=525600 MWORDS=1000 $END                                         
 INPUT CARD> $DET NCORE=3 NACT=13 NELS=17 $END                                              
 INPUT CARD> $GUESS GUESS=MOREAD NORB=78 $END                                               
 INPUT CARD> $BASIS GBASIS=ACCD $END                                                        
 INPUT CARD> $STATPT IFREEZ(1)=2 $END                                                       
 INPUT CARD> $DATA                                                                          
 INPUT CARD>CS HCO2 data                                                                    
 INPUT CARD>C1                                                                              
 INPUT CARD>C                                                                               
 INPUT CARD>O   1    1.3152780000000002                                                     
 INPUT CARD>O   1    1.3430000  2 121.4688371                                               
 INPUT CARD>H   1    1.0993617  2 127.0476287  3 180.0000000                                
 INPUT CARD> $END                                                                           
 INPUT CARD> $ZMAT IZMAT(1)=1,2,1, 1,3,1, 2,3,1,2, 1,4,1, 2,4,1,2, 3,4,1,2,3 $END           
 INPUT CARD> $VEC                                                                           
 INPUT CARD> 1  1-2.00151965E-04-4.67084021E-04 9.66797909E-03-2.64231198E-04 9.89206874E-04
 INPUT CARD> 1  2-0.00000000E+00-6.69133067E-03 4.71925934E-03-0.00000000E+00-2.12021949E-04
 INPUT CARD> 1  3 3.93480170E-04-1.81458221E-04 4.40369542E-04-0.00000000E+00-0.00000000E+00
 INPUT CARD> 1  4 3.80035750E-03 1.23259286E-05-3.37408587E-05-0.00000000E+00 2.24453827E-03
 INPUT CARD> 1  5-9.50238367E-04-1.29429990E-03-3.44366883E-03-0.00000000E+00-0.00000000E+00
 INPUT CARD> 1  6 3.42507930E-03-1.68492295E-05-3.70773023E-04 3.75453727E-04-3.56627891E-04
 INPUT CARD> 1  7-0.00000000E+00 1.24371132E-03 2.59537695E-04-0.00000000E+00-9.36750946E-05
 INPUT CARD> 1  8 8.92996565E-05 4.37543811E-06-4.07768777E-05-0.00000000E+00-0.00000000E+00
 INPUT CARD> 1  9 3.89673003E-04-6.12922742E-04 6.84774249E-05-0.00000000E+00-3.64074563E-04
 INPUT CARD> 1 10-3.52770222E-05 3.99351586E-04-1.58295943E-05-0.00000000E+00-0.00000000E+00
 INPUT CARD> 1 11 1.00120161E+00-1.56967815E-02-3.34900479E-02 7.17842500E-03-4.08043590E-03
 INPUT CARD> 1 12-0.00000000E+00-8.34252749E-04-2.35946594E-04-0.00000000E+00 4.02262877E-05
 INPUT CARD> 1 13-1.67860965E-04 1.27634677E-04-2.22153687E-04-0.00000000E+00-0.00000000E+00
 INPUT CARD> 1 14-8.08532418E-03-1.54501551E-03 3.61381210E-04-0.00000000E+00-5.09916445E-04
 INPUT CARD> 1 15 3.24038282E-04 1.85878163E-04 5.29853137E-04-0.00000000E+00-0.00000000E+00
 INPUT CARD> 1 16-1.84756841E-03 6.75399630E-04 2.19099460E-04-5.35069403E-04-0.00000000E+00
 INPUT CARD> 1 17-9.08727308E-04-1.35782009E-03 1.58614367E-04-0.00000000E+00               
 INPUT CARD> 2  1 5.49177991E-04 1.17010894E-04 1.20368062E-02-1.92420507E-04 6.09315184E-05
 INPUT CARD> 2  2 0.00000000E+00 6.23837539E-03 5.01874553E-03 0.00000000E+00-6.46018951E-04
 INPUT CARD> 2  3 5.72866486E-04 7.31524657E-05-1.27982430E-03 0.00000000E+00 0.00000000E+00
 INPUT CARD> 2  4 4.80226252E-03 2.69434328E-04-1.27476784E-05 0.00000000E+00 1.27350507E-03
 INPUT CARD> 2  5-1.22920637E-04-1.15058444E-03 2.93643754E-03 0.00000000E+00 0.00000000E+00
 INPUT CARD> 2  6 1.00131346E+00-1.74224500E-02-3.67657112E-02-8.61636154E-03-5.72470950E-03
 INPUT CARD> 2  7 0.00000000E+00-4.83466979E-04-1.14212591E-03 0.00000000E+00 1.39510664E-04
 INPUT CARD> 2  8 5.28722946E-05-1.92382959E-04 1.77826383E-04 0.00000000E+00 0.00000000E+00
 INPUT CARD> 2  9-9.96013702E-03 1.40443754E-03 4.68287691E-04 0.00000000E+00-3.10534702E-04
 INPUT CARD> 2 10 1.01557064E-04 2.08977637E-04-2.70053515E-04 0.00000000E+00 0.00000000E+00
 INPUT CARD> 2 11-3.28961859E-03 5.49832249E-04 8.07708194E-05 7.48623789E-05 9.93499808E-04
 INPUT CARD> 2 12 0.00000000E+00-9.90451524E-04 9.26083813E-04 0.00000000E+00-9.67237879E-05
 INPUT CARD> 2 13 7.51205605E-05 2.16032274E-05 4.24276546E-05 0.00000000E+00 0.00000000E+00
 INPUT CARD> 2 14-8.31637270E-07 4.38655922E-04 2.76674263E-04 0.00000000E+00-4.17945466E-04
 INPUT CARD> 2 15 7.15544883E-05 3.46390977E-04-8.98105295E-08 0.00000000E+00 0.00000000E+00
 1000000000 WORDS OF MEMORY AVAILABLE

     BASIS OPTIONS
     -------------
     GBASIS=ACCD         IGAUSS=       0      POLAR=NONE    
     NDFUNC=       0     NFFUNC=       0     DIFFSP=       F
     NPFUNC=       0      DIFFS=       F     BASNAM=        


     RUN TITLE
     ---------
 CS HCO2 data                                                                    

 THE POINT GROUP OF THE MOLECULE IS C1      
 THE ORDER OF THE PRINCIPAL AXIS IS     0

 YOUR FULLY SUBSTITUTED Z-MATRIX IS
 C   
 O      1   1.3152780
 O      1   1.3430000  2  121.4688
 H      1   1.0993617  2  127.0476  3  180.0000  0

 THE MOMENTS OF INERTIA ARE (AMU-ANGSTROM**2)
 IXX=     6.089   IYY=    43.029   IZZ=    49.117

 ATOM      ATOMIC                      COORDINATES (BOHR)
           CHARGE         X                   Y                   Z
 C           6.0     0.0248813366       -0.8267512827        0.0000000000
 O           8.0     2.1897109590        0.3944356846        0.0000000000
 O           8.0    -2.1925875308        0.4076629069        0.0000000000
 H           1.0    -0.2506045517       -2.8858972443        0.0000000000

          INTERNUCLEAR DISTANCES (ANGS.)
          ------------------------------

                1 C          2 O          3 O          4 H     

   1 C       0.0000000    1.3152780 *  1.3430000 *  1.0993617 *
   2 O       1.3152780 *  0.0000000    2.3190232 *  2.1635342 *
   3 O       1.3430000 *  2.3190232 *  0.0000000    2.0232874 *
   4 H       1.0993617 *  2.1635342 *  2.0232874 *  0.0000000  

  * ... LESS THAN  3.000


     ATOMIC BASIS SET
     ----------------
 THE CONTRACTED PRIMITIVE FUNCTIONS HAVE BEEN UNNORMALIZED
 THE CONTRACTED BASIS FUNCTIONS ARE NOW NORMALIZED TO UNITY

  SHELL TYPE  PRIMITIVE        EXPONENT          CONTRACTION COEFFICIENT(S)

 C         

      1   S       1          6665.0000000    0.000691583963
      1   S       2          1000.0000000    0.005325796153
      1   S       3           228.0000000    0.027060721042
      1   S       4            64.7100000    0.101656846141
      1   S       5            21.0600000    0.274574823617
      1   S       6             7.4950000    0.448294318924
      1   S       7             2.7970000    0.284902610715
      1   S       8             0.5215000    0.015194859206

      2   S       9          6665.0000000   -0.000293269653
      2   S      10          1000.0000000   -0.002318035474
      2   S      11           228.0000000   -0.011499786039
      2   S      12            64.7100000   -0.046826727010
      2   S      13            21.0600000   -0.128466168750
      2   S      14             7.4950000   -0.301266272463
      2   S      15             2.7970000   -0.255630702330
      2   S      16             0.5215000    1.093793361012

      3   S      17             0.1596000    1.000000000000

      4   P      18             9.4390000    0.056979251590
      4   P      19             2.0020000    0.313207211501
      4   P      20             0.5456000    0.760376741738

      5   P      21             0.1517000    1.000000000000

      6   D      22             0.5500000    1.000000000000

      7   S      23             0.0469000    1.000000000000

      8   P      24             0.0404100    1.000000000000

      9   D      25             0.1510000    1.000000000000

 O         

     10   S      26         11720.0000000    0.000709645947
     10   S      27          1759.0000000    0.005467272292
     10   S      28           400.8000000    0.027823118610
     10   S      29           113.7000000    0.104747739711
     10   S      30            37.0300000    0.282920846357
     10   S      31            13.2700000    0.448495238698
     10   S      32             5.0250000    0.270816885213
     10   S      33             1.0130000    0.015450291607

     11   S      34         11720.0000000   -0.000314443412
     11   S      35          1759.0000000   -0.002482137681
     11   S      36           400.8000000   -0.012316355382
     11   S      37           113.7000000   -0.050538917344
     11   S      38            37.0300000   -0.139384903316
     11   S      39            13.2700000   -0.325077494818
     11   S      40             5.0250000   -0.229848307588
     11   S      41             1.0130000    1.095379346788

     12   S      42             0.3023000    1.000000000000

     13   P      43            17.7000000    0.062679166282
     13   P      44             3.8540000    0.333536565879
     13   P      45             1.0460000    0.741239641640

     14   P      46             0.2753000    1.000000000000

     15   D      47             1.1850000    1.000000000000

     16   S      48             0.0789600    1.000000000000

     17   P      49             0.0685600    1.000000000000

     18   D      50             0.3320000    1.000000000000

 O         

     19   S      51         11720.0000000    0.000709645947
     19   S      52          1759.0000000    0.005467272292
     19   S      53           400.8000000    0.027823118610
     19   S      54           113.7000000    0.104747739711
     19   S      55            37.0300000    0.282920846357
     19   S      56            13.2700000    0.448495238698
     19   S      57             5.0250000    0.270816885213
     19   S      58             1.0130000    0.015450291607

     20   S      59         11720.0000000   -0.000314443412
     20   S      60          1759.0000000   -0.002482137681
     20   S      61           400.8000000   -0.012316355382
     20   S      62           113.7000000   -0.050538917344
     20   S      63            37.0300000   -0.139384903316
     20   S      64            13.2700000   -0.325077494818
     20   S      65             5.0250000   -0.229848307588
     20   S      66             1.0130000    1.095379346788

     21   S      67             0.3023000    1.000000000000

     22   P      68            17.7000000    0.062679166282
     22   P      69             3.8540000    0.333536565879
     22   P      70             1.0460000    0.741239641640

     23   P      71             0.2753000    1.000000000000

     24   D      72             1.1850000    1.000000000000

     25   S      73             0.0789600    1.000000000000

     26   P      74             0.0685600    1.000000000000

     27   D      75             0.3320000    1.000000000000

 H         

     28   S      76            13.0100000    0.033498726390
     28   S      77             1.9620000    0.234800801174
     28   S      78             0.4446000    0.813682957883

     29   S      79             0.1220000    1.000000000000

     30   P      80             0.7270000    1.000000000000

     31   S      81             0.0297400    1.000000000000

     32   P      82             0.1410000    1.000000000000

 TOTAL NUMBER OF BASIS SET SHELLS             =   32
 NUMBER OF CARTESIAN GAUSSIAN BASIS FUNCTIONS =   84
 NOTE: THIS RUN WILL RESTRICT THE MO VARIATION SPACE TO SPHERICAL HARMONICS.
 THE NUMBER OF ORBITALS KEPT IN THE VARIATIONAL SPACE WILL BE PRINTED LATER.
 NUMBER OF ELECTRONS                          =   23
 CHARGE OF MOLECULE                           =    0
 SPIN MULTIPLICITY                            =    2
 NUMBER OF OCCUPIED ORBITALS (ALPHA)          =   12
 NUMBER OF OCCUPIED ORBITALS (BETA )          =   11
 TOTAL NUMBER OF ATOMS                        =    4
 THE NUCLEAR REPULSION ENERGY IS       59.7664524075

     $CONTRL OPTIONS
     ---------------
 SCFTYP=MCSCF        RUNTYP=OPTIMIZE     EXETYP=RUN     
 MPLEVL=       0     CITYP =NONE         CCTYP =NONE         VBTYP =NONE    
 DFTTYP=NONE         TDDFT =NONE    
 MULT  =       2     ICHARG=       0     NZVAR =       6     COORD =ZMT     
 PP    =NONE         RELWFN=NONE         LOCAL =NONE         NUMGRD=       F
 ISPHER=       1     NOSYM =       1     MAXIT =      30     UNITS =ANGS    
 PLTORB=       F     MOLPLT=       F     AIMPAC=       F     FRIEND=        
 NPRINT=       7     IREST =       0     GEOM  =INPUT   
 NORMF =       0     NORMP =       0     ITOL  =      20     ICUT  =       9
 INTTYP=BEST         GRDTYP=BEST         QMTTOL= 1.0E-06

     $SYSTEM OPTIONS
     ---------------
  REPLICATED MEMORY=  1000000000 WORDS (ON EVERY NODE).
 DISTRIBUTED MEMDDI=           0 MILLION WORDS IN AGGREGATE,
 MEMDDI DISTRIBUTED OVER   4 PROCESSORS IS           0 WORDS/PROCESSOR.
 TOTAL MEMORY REQUESTED ON EACH PROCESSOR=  1000000000 WORDS.
 TIMLIM=      525600.00 MINUTES, OR     365.0 DAYS.
 PARALL= T  BALTYP=  DLB     KDIAG=    0  COREFL= F
 MXSEQ2=     300 MXSEQ3=     150

          ----------------
          PROPERTIES INPUT
          ----------------

     MOMENTS            FIELD           POTENTIAL          DENSITY
 IEMOM =       1   IEFLD =       0   IEPOT =       0   IEDEN =       0
 WHERE =COMASS     WHERE =NUCLEI     WHERE =NUCLEI     WHERE =NUCLEI  
 OUTPUT=BOTH       OUTPUT=BOTH       OUTPUT=BOTH       OUTPUT=BOTH    
 IEMINT=       0   IEFINT=       0                     IEDINT=       0
                                                       MORB  =       0

     -------------------------------
     INTEGRAL TRANSFORMATION OPTIONS
     -------------------------------
     NWORD  =            0
     CUTOFF = 1.0E-09     MPTRAN =       0
     DIRTRF =       F     AOINTS =DUP     

          ----------------------
          MCSCF INPUT PARAMETERS
          ----------------------
 CONVERGER SELECTION: FOCAS = F  SOSCF = T  FULLNR = F  QUD = F  JACOBI = F
 SECULAR EQUATION METHOD CISTEP = ALDET   
 --- GENERAL INPUT OPTIONS:
 MAXIT =     200  MICIT =       5  ACURCY= 1.000E-05
 DAMP  =   0.000  CANONC=       T  ENGTOL= 1.000E-10
 EKT   =       F  NPUNCH=       2  NWORD =         0
 --- INPUT FOR SOSCF CONVERGER:
 FORS  =       T  NOFO  =       1

          ----------------------
          INTEGRAL INPUT OPTIONS
          ----------------------
 NOPK  =       1 NORDER=       0 SCHWRZ=       F

   --- ENCODED Z MATRIX ---
 COORD  TYPE   I   J   K   L   M   N
    1      1    2   1
    2      1    3   1
    3      2    3   1   2
    4      1    4   1
    5      2    4   1   2
    6      3    4   1   2   3

 THE DETERMINANT OF THE G MATRIX IS 10**(    -4)


                     --------------------
                     INTERNAL COORDINATES
                     --------------------

                 - - ATOMS - -         COORDINATE      COORDINATE
 NO.   TYPE    I  J  K  L  M  N        (BOHR,RAD)       (ANG,DEG)
 ----------------------------------------------------------------
   1 STRETCH   2  1                     2.4855150       1.3152780
   2 STRETCH   3  1                     2.5379020       1.3430000
   3 BEND      3  1  2                  2.1200311     121.4688371
   4 STRETCH   4  1                     2.0774924       1.0993617
   5 BEND      4  1  2                  2.2173994     127.0476287
   6 TORSION   4  1  2  3               3.1415927     180.0000000

     ------------------------------------------
     THE POINT GROUP IS C1 , NAXIS= 1, ORDER= 1
     ------------------------------------------

 -- VARIATIONAL SPACE WILL BE RESTRICTED TO PURE SPHERICAL HARMONICS ONLY --
 AFTER EXCLUDING CONTAMINANT COMBINATIONS FROM THE CARTESIAN GAUSSIAN BASIS
 SET, THE NUMBER OF SPHERICAL HARMONICS KEPT IN THE VARIATION SPACE IS   78

     DIMENSIONS OF THE SYMMETRY SUBSPACES ARE
 A   =   78

 ..... DONE SETTING UP THE RUN .....
 CPU     0: STEP CPU TIME=     0.03 TOTAL CPU TIME=        0.0 (    0.0 MIN)
 TOTAL WALL CLOCK TIME=        0.0 SECONDS, CPU UTILIZATION IS 100.00%


          -----------------------------
          STATIONARY POINT LOCATION RUN
          -----------------------------

 OBTAINING INITIAL HESSIAN, HESS=GUESS   
 DIAGONAL GUESS HESSIAN IN INTERNAL COORDS IS
     1  0.4501     2  0.4265     3  0.2513     4  0.3401     5  0.2255
     6  0.2500

          PARAMETERS CONTROLLING GEOMETRY SEARCH ARE
          METHOD =QA                  UPHESS =BFGS    
          NNEG   =         0          NFRZ   =         1
          NSTEP  =        50          IFOLOW =         1
          HESS   =GUESS               RESTAR =         F
          IHREP  =         0          HSSEND =         F
          NPRT   =         0          NPUN   =         0
          OPTTOL = 1.000E-04          RMIN   = 1.500E-03
          RMAX   = 1.000E-01          RLIM   = 7.000E-02
          DXMAX  = 3.000E-01          PURIFY =         F
          MOVIE  =         F          TRUPD  =         T
          TRMAX  = 5.000E-01          TRMIN  = 5.000E-02
          ITBMAT =         5          STPT   =         F
          STSTEP = 1.000E-02          PROJCT=          T
          FROZEN COORD(S)=   1

 BEGINNING GEOMETRY SEARCH POINT NSERCH=   0 ...

 COORDINATES OF ALL ATOMS ARE (ANGS)
   ATOM   CHARGE       X              Y              Z
 ------------------------------------------------------------
 C           6.0   0.0131666373  -0.4374979696   0.0000000000
 O           8.0   1.1587452219   0.2087263906   0.0000000000
 O           8.0  -1.1602674382   0.2157259357   0.0000000000
 H           1.0  -0.1326142273  -1.5271511653   0.0000000000


                     --------------------
                     INTERNAL COORDINATES
                     --------------------

                 - - ATOMS - -         COORDINATE      COORDINATE
 NO.   TYPE    I  J  K  L  M  N        (BOHR,RAD)       (ANG,DEG)
 ----------------------------------------------------------------
   1 STRETCH   2  1                     2.4855150       1.3152780
   2 STRETCH   3  1                     2.5379020       1.3430000
   3 BEND      3  1  2                  2.1200311     121.4688371
   4 STRETCH   4  1                     2.0774924       1.0993617
   5 BEND      4  1  2                  2.2173994     127.0476287
   6 TORSION   4  1  2  3               3.1415927     180.0000000

          ********************
          1 ELECTRON INTEGRALS
          ********************
 TIME TO DO   DIPOLE INTEGRALS=      0.00
 ...... END OF ONE-ELECTRON INTEGRALS ......
 CPU     0: STEP CPU TIME=     0.00 TOTAL CPU TIME=        0.0 (    0.0 MIN)
 TOTAL WALL CLOCK TIME=        0.0 SECONDS, CPU UTILIZATION IS  75.00%

          -------------
          GUESS OPTIONS
          -------------
          GUESS =MOREAD            NORB  =      78          NORDER=       0
          MIX   =       F          PRTMO =       F          PUNMO =       F
          TOLZ  = 1.0E-08          TOLE  = 1.0E-05
          SYMDEN=       F          PURIFY=       F

 INITIAL GUESS ORBITALS GENERATED BY MOREAD   ROUTINE.

 STATISTICS FOR GENERATION OF SYMMETRY ORBITAL -Q- MATRIX
 NUMBER OF CARTESIAN ATOMIC ORBITALS=         84
 NUMBER OF SPHERICAL CONTAMINANTS DROPPED=     6
 NUMBER OF LINEARLY DEPENDENT MOS DROPPED=     0
 TOTAL NUMBER OF MOS IN VARIATION SPACE=      78

 SYMMETRIES FOR INITIAL GUESS ORBITALS FOLLOW.   BOTH SET(S).
    12 ORBITALS ARE OCCUPIED (    3 CORE ORBITALS).
     1=A        2=A        3=A        4=A        5=A        6=A        7=A   
     8=A        9=A       10=A       11=A       12=A       13=A       14=A   
    15=A       16=A       17=A       18=A       19=A       20=A       21=A   
    22=A       23=A       24=A       25=A       26=A       27=A       28=A   
    29=A       30=A       31=A       32=A       33=A       34=A       35=A   
    36=A       37=A       38=A       39=A       40=A       41=A       42=A   
    43=A       44=A       45=A       46=A       47=A       48=A       49=A   
    50=A       51=A       52=A       53=A       54=A       55=A       56=A   
    57=A       58=A       59=A       60=A       61=A       62=A       63=A   
    64=A       65=A       66=A       67=A       68=A       69=A       70=A   
    71=A       72=A       73=A       74=A       75=A       76=A       77=A   
    78=A   
 ...... END OF INITIAL ORBITAL SELECTION ......
 CPU     0: STEP CPU TIME=     0.01 TOTAL CPU TIME=        0.0 (    0.0 MIN)
 TOTAL WALL CLOCK TIME=        0.0 SECONDS, CPU UTILIZATION IS  80.00%

                    ----------------------
                    AO INTEGRAL TECHNOLOGY
                    ----------------------
     S,P,L SHELL ROTATED AXIS INTEGRALS, REPROGRAMMED BY
        KAZUYA ISHIMURA (IMS) AND JOSE SIERRA (SYNSTAR).
     S,P,D,L SHELL ROTATED AXIS INTEGRALS PROGRAMMED BY
        KAZUYA ISHIMURA (INSTITUTE FOR MOLECULAR SCIENCE).
     S,P,D,F,G SHELL TO TOTAL QUARTET ANGULAR MOMENTUM SUM 5,
        ERIC PROGRAM BY GRAHAM FLETCHER (ELORET AND NASA ADVANCED
        SUPERCOMPUTING DIVISION, AMES RESEARCH CENTER).
     S,P,D,F,G,L SHELL GENERAL RYS QUADRATURE PROGRAMMED BY
        MICHEL DUPUIS (PACIFIC NORTHWEST NATIONAL LABORATORY).

          --------------------
          2 ELECTRON INTEGRALS
          --------------------

 THE -PK- OPTION IS OFF, THE INTEGRALS ARE NOT IN SUPERMATRIX FORM.
 STORING   15000 INTEGRALS/RECORD ON DISK, USING 12 BYTES/INTEGRAL.
 TWO ELECTRON INTEGRAL EVALUATION REQUIRES   90924 WORDS OF MEMORY.
 II,JST,KST,LST =  1  1  1  1 NREC =         1 INTLOC =    1
 II,JST,KST,LST =  2  1  1  1 NREC =         1 INTLOC =    2
 II,JST,KST,LST =  3  1  1  1 NREC =         1 INTLOC =    7
 II,JST,KST,LST =  4  1  1  1 NREC =         1 INTLOC =   22
 II,JST,KST,LST =  5  1  1  1 NREC =         1 INTLOC =   67
 II,JST,KST,LST =  6  1  1  1 NREC =         1 INTLOC =  214
 II,JST,KST,LST =  7  1  1  1 NREC =         1 INTLOC = 1189
 II,JST,KST,LST =  8  1  1  1 NREC =         1 INTLOC = 1589
 II,JST,KST,LST =  9  1  1  1 NREC =         1 INTLOC = 2864
 II,JST,KST,LST = 10  1  1  1 NREC =         1 INTLOC = 7967
 II,JST,KST,LST = 11  1  1  1 NREC =         1 INTLOC =12848
 II,JST,KST,LST = 12  1  1  1 NREC =         2 INTLOC = 3377
 II,JST,KST,LST = 13  1  1  1 NREC =         2 INTLOC = 9614
 II,JST,KST,LST = 14  1  1  1 NREC =         4 INTLOC =  829
 II,JST,KST,LST = 15  1  1  1 NREC =         5 INTLOC =13738
 II,JST,KST,LST = 16  1  1  1 NREC =        11 INTLOC = 4129
 II,JST,KST,LST = 17  1  1  1 NREC =        12 INTLOC = 7423
 II,JST,KST,LST = 18  1  1  1 NREC =        16 INTLOC = 6025
 II,JST,KST,LST = 19  1  1  1 NREC =        26 INTLOC = 9997
 II,JST,KST,LST = 20  1  1  1 NREC =        28 INTLOC =14314
 II,JST,KST,LST = 21  1  1  1 NREC =        31 INTLOC = 7634
 II,JST,KST,LST = 22  1  1  1 NREC =        34 INTLOC = 3861
 II,JST,KST,LST = 23  1  1  1 NREC =        42 INTLOC =11222
 II,JST,KST,LST = 24  1  1  1 NREC =        52 INTLOC =12158
 II,JST,KST,LST = 25  1  1  1 NREC =        77 INTLOC = 6999
 II,JST,KST,LST = 26  1  1  1 NREC =        82 INTLOC = 9950
 II,JST,KST,LST = 27  1  1  1 NREC =        98 INTLOC = 9420
 II,JST,KST,LST = 28  1  1  1 NREC =       136 INTLOC =14599
 II,JST,KST,LST = 29  1  1  1 NREC =       144 INTLOC =14324
 II,JST,KST,LST = 30  1  1  1 NREC =       153 INTLOC = 4493
 II,JST,KST,LST = 31  1  1  1 NREC =       178 INTLOC =10534
 II,JST,KST,LST = 32  1  1  1 NREC =       188 INTLOC = 6279
 TOTAL NUMBER OF NONZERO TWO-ELECTRON INTEGRALS =             3254122
        217 INTEGRAL RECORDS WERE STORED ON DISK FILE  8.
  ...... END OF TWO-ELECTRON INTEGRALS .....
 STEP CPU TIME =     0.80 TOTAL CPU TIME =        0.8 (    0.0 MIN)
 TOTAL WALL CLOCK TIME=        1.3 SECONDS, CPU UTILIZATION IS  62.69%

          -----------------
          MCSCF CALCULATION
          -----------------

 ----- NUCLEAR ENERGY ----- =        59.7664524075

     --------------------------------------------------
          AMES LABORATORY DETERMINANTAL FULL CI
     PROGRAM WRITTEN BY JOE IVANIC AND KLAUS RUEDENBERG
     --------------------------------------------------

 THE POINT GROUP                  =   C1      
 THE STATE SYMMETRY               =   A       
 NUMBER OF CORE ORBITALS          =    3
 NUMBER OF ACTIVE ORBITALS        =   13
 NUMBER OF ALPHA ELECTRONS        =   12 (   9 ACTIVE)
 NUMBER OF BETA ELECTRONS         =   11 (   8 ACTIVE)
 NUMBER OF OCCUPIED ORBITALS      =   16
 NUMBER OF CI STATES REQUESTED    =    1
 NUMBER OF CI STARTING VECTORS    =    1
 MAX. NO. OF CI EXPANSION VECTORS =   10
 SIZE OF INITIAL CI GUESS MATRIX  =  300
 MAX. NO. OF CI ITERS/STATE       =  100
 CI DIAGONALIZATION CRITERION     = 1.00E-06
 PURE SPIN STATE AVERAGED 1E- AND 2E- DENSITY MATRIX OPTION=.T.
 STATE=   1 DM2 WEIGHT=   1.00000

 CORRELATION ENERGY ANALYSIS      =    F

 SYMMETRIES FOR THE   3 CORE,  13 ACTIVE ARE

     CORE= A     A     A   

   ACTIVE= A     A     A     A     A     A     A     A     A     A   
           A     A     A   
 OPENING FILE DAFL30 WITH      81 LOGICAL RECORDS OF    7056 WORDS
 WITH A MAXIMUM OF         324 PHYSICAL RECORDS OF    2048 WORDS

          ------------------------------
          CASSCF INTEGRAL TRANSFORMATION
          ------------------------------
 AO INTEGRALS WILL BE READ IN FROM DISK...
 MEMORY WHICH WOULD BE NEEDED FOR SINGLE PASS TRANSFORMATION =    4301164

 ----- CHOOSING THREE STEPS TRANSFORMATION -----
 NUMBER OF WORDS USED      =    1459143
 NUMBER OF WORDS AVAILABLE =  999999964
 NUMBER OF PASSES          =          4
 PASS #   1 COMPLETED IN         0.2 SECONDS.
 PASS #   2 IS ASSIGNED TO A DIFFERENT PROCESSOR.
 PASS #   3 IS ASSIGNED TO A DIFFERENT PROCESSOR.
 PASS #   4 IS ASSIGNED TO A DIFFERENT PROCESSOR.

 ----- NUCLEAR REPULSION ENERGY =     59.76645241
 ----- FROZEN CORE ENERGY       =   -177.92478775

 ... SYMMETRY ...           CPU =    0.00
 ... (PQ|RS) -> (PQ|KL) ... CPU =    0.19
 ... (PQ|KL) -> (IJ|KL) ... CPU =    0.00

 NUMBER OF (PQ|KL) INTEGRALS WRITTEN     174189
 NUMBER OF (IJ|KL) INTEGRALS WRITTEN       2356
 ..... END OF CAS INTEGRAL TRANSFORMATION .....
 CPU     0: STEP CPU TIME=     0.19 TOTAL CPU TIME=        1.0 (    0.0 MIN)
 TOTAL WALL CLOCK TIME=        1.5 SECONDS, CPU UTILIZATION IS  66.88%

     --------------------------------------------------
          AMES LABORATORY DETERMINANTAL FULL CI
     PROGRAM WRITTEN BY JOE IVANIC AND KLAUS RUEDENBERG
     --------------------------------------------------

 THE NUMBER OF DETERMINANTS HAVING SPACE SYMMETRY A  
 IN POINT GROUP C1   WITH SZ=  0.5 IS         920205
 WHICH INCLUDES         429429 CSFS WITH S=  0.5
 WHICH INCLUDES         356928 CSFS WITH S=  1.5
 WHICH INCLUDES         117117 CSFS WITH S=  2.5
 WHICH INCLUDES          16016 CSFS WITH S=  3.5
 WHICH INCLUDES            715 CSFS WITH S=  4.5
 THE DETERMINANT FULL CI REQUIRES        19565353 WORDS
 INITIAL CI VECTOR GUESS TIME  :          0.4
 INITIAL FULL CI ITERATION TIME:          3.9

 ITERATION      ENERGY           GRADIENT
     0     -188.1589049712     0.54391707
     1     -188.2704073357     0.20912513
 ddikick.x: Sending kill signal to DDI processes.
 ddikick.x: Execution terminated due to error(s).
